[Molden Format]
[Title]
Written by TeraChem
[Atoms] Angs
C   1   6     -1.44336    0.00002   -0.03755
C   2   6      1.43734   -0.00002   -0.04590
C   3   6      0.73798    1.24893   -0.04537
C   4   6     -0.74385    1.24896   -0.04129
C   5   6      0.73793   -1.24895   -0.04542
C   6   6     -0.74388   -1.24892   -0.04117
C   7   6     -2.86782    0.00005   -0.03265
C   8   6      2.86167   -0.00006   -0.04926
C   9   6      1.47039    2.42079   -0.04955
C   10   6      1.47029   -2.42083   -0.04978
C   11   6     -1.47603    2.42098   -0.04152
C   12   6     -1.47610   -2.42093   -0.04115
C   13   6     -3.57076   -1.23209   -0.03066
C   14   6     -3.57073    1.23220   -0.03088
C   15   6      3.56474   -1.23194   -0.05277
C   16   6      3.56479    1.23181   -0.05266
C   17   6      2.87928    2.41680   -0.05375
C   18   6      2.87918   -2.41691   -0.05400
C   19   6     -2.88494    2.41703   -0.03607
C   20   6     -2.88501   -2.41693   -0.03564
H   21   1      0.97167    3.38387   -0.04989
H   22   1      0.97153   -3.38390   -0.05024
H   23   1     -0.97704    3.38395   -0.04600
H   24   1     -0.97713   -3.38391   -0.04546
H   25   1     -4.65798   -1.21565   -0.02684
H   26   1     -4.65794    1.21579   -0.02706
H   27   1      4.65184   -1.21506   -0.05546
H   28   1      4.65189    1.21488   -0.05535
H   29   1      3.41119    3.36400   -0.05842
H   30   1      3.41105   -3.36413   -0.05879
H   31   1     -3.41659    3.36443   -0.03573
H   32   1     -3.41667   -3.36433   -0.03510
[GTO]
    1 0
 s    6 1.00
         3047.524900             0.536334
          457.369510             0.989451
          103.948690             1.597282
           29.210155             2.079187
            9.286663             1.774174
            3.163927             0.612580
 s    3 1.00
            7.868272            -0.399556
            1.881288            -0.184155
            0.544249             0.516390
 s    1 1.00
            0.168714             0.187618
 p    3 1.00
            7.868272             1.296083
            1.881288             0.993754
            0.544249             0.495953
 p    1 1.00
            0.168714             0.154128
 d    1 1.00
            0.800000             1.929201

    2 0
 s    6 1.00
         3047.524900             0.536334
          457.369510             0.989451
          103.948690             1.597282
           29.210155             2.079187
            9.286663             1.774174
            3.163927             0.612580
 s    3 1.00
            7.868272            -0.399556
            1.881288            -0.184155
            0.544249             0.516390
 s    1 1.00
            0.168714             0.187618
 p    3 1.00
            7.868272             1.296083
            1.881288             0.993754
            0.544249             0.495953
 p    1 1.00
            0.168714             0.154128
 d    1 1.00
            0.800000             1.929201

    3 0
 s    6 1.00
         3047.524900             0.536334
          457.369510             0.989451
          103.948690             1.597282
           29.210155             2.079187
            9.286663             1.774174
            3.163927             0.612580
 s    3 1.00
            7.868272            -0.399556
            1.881288            -0.184155
            0.544249             0.516390
 s    1 1.00
            0.168714             0.187618
 p    3 1.00
            7.868272             1.296083
            1.881288             0.993754
            0.544249             0.495953
 p    1 1.00
            0.168714             0.154128
 d    1 1.00
            0.800000             1.929201

    4 0
 s    6 1.00
         3047.524900             0.536334
          457.369510             0.989451
          103.948690             1.597282
           29.210155             2.079187
            9.286663             1.774174
            3.163927             0.612580
 s    3 1.00
            7.868272            -0.399556
            1.881288            -0.184155
            0.544249             0.516390
 s    1 1.00
            0.168714             0.187618
 p    3 1.00
            7.868272             1.296083
            1.881288             0.993754
            0.544249             0.495953
 p    1 1.00
            0.168714             0.154128
 d    1 1.00
            0.800000             1.929201

    5 0
 s    6 1.00
         3047.524900             0.536334
          457.369510             0.989451
          103.948690             1.597282
           29.210155             2.079187
            9.286663             1.774174
            3.163927             0.612580
 s    3 1.00
            7.868272            -0.399556
            1.881288            -0.184155
            0.544249             0.516390
 s    1 1.00
            0.168714             0.187618
 p    3 1.00
            7.868272             1.296083
            1.881288             0.993754
            0.544249             0.495953
 p    1 1.00
            0.168714             0.154128
 d    1 1.00
            0.800000             1.929201

    6 0
 s    6 1.00
         3047.524900             0.536334
          457.369510             0.989451
          103.948690             1.597282
           29.210155             2.079187
            9.286663             1.774174
            3.163927             0.612580
 s    3 1.00
            7.868272            -0.399556
            1.881288            -0.184155
            0.544249             0.516390
 s    1 1.00
            0.168714             0.187618
 p    3 1.00
            7.868272             1.296083
            1.881288             0.993754
            0.544249             0.495953
 p    1 1.00
            0.168714             0.154128
 d    1 1.00
            0.800000             1.929201

    7 0
 s    6 1.00
         3047.524900             0.536334
          457.369510             0.989451
          103.948690             1.597282
           29.210155             2.079187
            9.286663             1.774174
            3.163927             0.612580
 s    3 1.00
            7.868272            -0.399556
            1.881288            -0.184155
            0.544249             0.516390
 s    1 1.00
            0.168714             0.187618
 p    3 1.00
            7.868272             1.296083
            1.881288             0.993754
            0.544249             0.495953
 p    1 1.00
            0.168714             0.154128
 d    1 1.00
            0.800000             1.929201

    8 0
 s    6 1.00
         3047.524900             0.536334
          457.369510             0.989451
          103.948690             1.597282
           29.210155             2.079187
            9.286663             1.774174
            3.163927             0.612580
 s    3 1.00
            7.868272            -0.399556
            1.881288            -0.184155
            0.544249             0.516390
 s    1 1.00
            0.168714             0.187618
 p    3 1.00
            7.868272             1.296083
            1.881288             0.993754
            0.544249             0.495953
 p    1 1.00
            0.168714             0.154128
 d    1 1.00
            0.800000             1.929201

    9 0
 s    6 1.00
         3047.524900             0.536334
          457.369510             0.989451
          103.948690             1.597282
           29.210155             2.079187
            9.286663             1.774174
            3.163927             0.612580
 s    3 1.00
            7.868272            -0.399556
            1.881288            -0.184155
            0.544249             0.516390
 s    1 1.00
            0.168714             0.187618
 p    3 1.00
            7.868272             1.296083
            1.881288             0.993754
            0.544249             0.495953
 p    1 1.00
            0.168714             0.154128
 d    1 1.00
            0.800000             1.929201

   10 0
 s    6 1.00
         3047.524900             0.536334
          457.369510             0.989451
          103.948690             1.597282
           29.210155             2.079187
            9.286663             1.774174
            3.163927             0.612580
 s    3 1.00
            7.868272            -0.399556
            1.881288            -0.184155
            0.544249             0.516390
 s    1 1.00
            0.168714             0.187618
 p    3 1.00
            7.868272             1.296083
            1.881288             0.993754
            0.544249             0.495953
 p    1 1.00
            0.168714             0.154128
 d    1 1.00
            0.800000             1.929201

   11 0
 s    6 1.00
         3047.524900             0.536334
          457.369510             0.989451
          103.948690             1.597282
           29.210155             2.079187
            9.286663             1.774174
            3.163927             0.612580
 s    3 1.00
            7.868272            -0.399556
            1.881288            -0.184155
            0.544249             0.516390
 s    1 1.00
            0.168714             0.187618
 p    3 1.00
            7.868272             1.296083
            1.881288             0.993754
            0.544249             0.495953
 p    1 1.00
            0.168714             0.154128
 d    1 1.00
            0.800000             1.929201

   12 0
 s    6 1.00
         3047.524900             0.536334
          457.369510             0.989451
          103.948690             1.597282
           29.210155             2.079187
            9.286663             1.774174
            3.163927             0.612580
 s    3 1.00
            7.868272            -0.399556
            1.881288            -0.184155
            0.544249             0.516390
 s    1 1.00
            0.168714             0.187618
 p    3 1.00
            7.868272             1.296083
            1.881288             0.993754
            0.544249             0.495953
 p    1 1.00
            0.168714             0.154128
 d    1 1.00
            0.800000             1.929201

   13 0
 s    6 1.00
         3047.524900             0.536334
          457.369510             0.989451
          103.948690             1.597282
           29.210155             2.079187
            9.286663             1.774174
            3.163927             0.612580
 s    3 1.00
            7.868272            -0.399556
            1.881288            -0.184155
            0.544249             0.516390
 s    1 1.00
            0.168714             0.187618
 p    3 1.00
            7.868272             1.296083
            1.881288             0.993754
            0.544249             0.495953
 p    1 1.00
            0.168714             0.154128
 d    1 1.00
            0.800000             1.929201

   14 0
 s    6 1.00
         3047.524900             0.536334
          457.369510             0.989451
          103.948690             1.597282
           29.210155             2.079187
            9.286663             1.774174
            3.163927             0.612580
 s    3 1.00
            7.868272            -0.399556
            1.881288            -0.184155
            0.544249             0.516390
 s    1 1.00
            0.168714             0.187618
 p    3 1.00
            7.868272             1.296083
            1.881288             0.993754
            0.544249             0.495953
 p    1 1.00
            0.168714             0.154128
 d    1 1.00
            0.800000             1.929201

   15 0
 s    6 1.00
         3047.524900             0.536334
          457.369510             0.989451
          103.948690             1.597282
           29.210155             2.079187
            9.286663             1.774174
            3.163927             0.612580
 s    3 1.00
            7.868272            -0.399556
            1.881288            -0.184155
            0.544249             0.516390
 s    1 1.00
            0.168714             0.187618
 p    3 1.00
            7.868272             1.296083
            1.881288             0.993754
            0.544249             0.495953
 p    1 1.00
            0.168714             0.154128
 d    1 1.00
            0.800000             1.929201

   16 0
 s    6 1.00
         3047.524900             0.536334
          457.369510             0.989451
          103.948690             1.597282
           29.210155             2.079187
            9.286663             1.774174
            3.163927             0.612580
 s    3 1.00
            7.868272            -0.399556
            1.881288            -0.184155
            0.544249             0.516390
 s    1 1.00
            0.168714             0.187618
 p    3 1.00
            7.868272             1.296083
            1.881288             0.993754
            0.544249             0.495953
 p    1 1.00
            0.168714             0.154128
 d    1 1.00
            0.800000             1.929201

   17 0
 s    6 1.00
         3047.524900             0.536334
          457.369510             0.989451
          103.948690             1.597282
           29.210155             2.079187
            9.286663             1.774174
            3.163927             0.612580
 s    3 1.00
            7.868272            -0.399556
            1.881288            -0.184155
            0.544249             0.516390
 s    1 1.00
            0.168714             0.187618
 p    3 1.00
            7.868272             1.296083
            1.881288             0.993754
            0.544249             0.495953
 p    1 1.00
            0.168714             0.154128
 d    1 1.00
            0.800000             1.929201

   18 0
 s    6 1.00
         3047.524900             0.536334
          457.369510             0.989451
          103.948690             1.597282
           29.210155             2.079187
            9.286663             1.774174
            3.163927             0.612580
 s    3 1.00
            7.868272            -0.399556
            1.881288            -0.184155
            0.544249             0.516390
 s    1 1.00
            0.168714             0.187618
 p    3 1.00
            7.868272             1.296083
            1.881288             0.993754
            0.544249             0.495953
 p    1 1.00
            0.168714             0.154128
 d    1 1.00
            0.800000             1.929201

   19 0
 s    6 1.00
         3047.524900             0.536334
          457.369510             0.989451
          103.948690             1.597282
           29.210155             2.079187
            9.286663             1.774174
            3.163927             0.612580
 s    3 1.00
            7.868272            -0.399556
            1.881288            -0.184155
            0.544249             0.516390
 s    1 1.00
            0.168714             0.187618
 p    3 1.00
            7.868272             1.296083
            1.881288             0.993754
            0.544249             0.495953
 p    1 1.00
            0.168714             0.154128
 d    1 1.00
            0.800000             1.929201

   20 0
 s    6 1.00
         3047.524900             0.536334
          457.369510             0.989451
          103.948690             1.597282
           29.210155             2.079187
            9.286663             1.774174
            3.163927             0.612580
 s    3 1.00
            7.868272            -0.399556
            1.881288            -0.184155
            0.544249             0.516390
 s    1 1.00
            0.168714             0.187618
 p    3 1.00
            7.868272             1.296083
            1.881288             0.993754
            0.544249             0.495953
 p    1 1.00
            0.168714             0.154128
 d    1 1.00
            0.800000             1.929201

   21 0
 s    3 1.00
           18.731137             0.214935
            2.825394             0.364571
            0.640122             0.415051
 s    1 1.00
            0.161278             0.181381

   22 0
 s    3 1.00
           18.731137             0.214935
            2.825394             0.364571
            0.640122             0.415051
 s    1 1.00
            0.161278             0.181381

   23 0
 s    3 1.00
           18.731137             0.214935
            2.825394             0.364571
            0.640122             0.415051
 s    1 1.00
            0.161278             0.181381

   24 0
 s    3 1.00
           18.731137             0.214935
            2.825394             0.364571
            0.640122             0.415051
 s    1 1.00
            0.161278             0.181381

   25 0
 s    3 1.00
           18.731137             0.214935
            2.825394             0.364571
            0.640122             0.415051
 s    1 1.00
            0.161278             0.181381

   26 0
 s    3 1.00
           18.731137             0.214935
            2.825394             0.364571
            0.640122             0.415051
 s    1 1.00
            0.161278             0.181381

   27 0
 s    3 1.00
           18.731137             0.214935
            2.825394             0.364571
            0.640122             0.415051
 s    1 1.00
            0.161278             0.181381

   28 0
 s    3 1.00
           18.731137             0.214935
            2.825394             0.364571
            0.640122             0.415051
 s    1 1.00
            0.161278             0.181381

   29 0
 s    3 1.00
           18.731137             0.214935
            2.825394             0.364571
            0.640122             0.415051
 s    1 1.00
            0.161278             0.181381

   30 0
 s    3 1.00
           18.731137             0.214935
            2.825394             0.364571
            0.640122             0.415051
 s    1 1.00
            0.161278             0.181381

   31 0
 s    3 1.00
           18.731137             0.214935
            2.825394             0.364571
            0.640122             0.415051
 s    1 1.00
            0.161278             0.181381

   32 0
 s    3 1.00
           18.731137             0.214935
            2.825394             0.364571
            0.640122             0.415051
 s    1 1.00
            0.161278             0.181381

[MO]
 Ene=   -10.3028
 Spin= Alpha
 Occup= 2.0
    1   -0.05390
    2   -0.00046
    3   -0.00530
    4    0.00059
    5    0.00057
    6   -0.00000
    7   -0.00234
    8    0.00078
    9    0.00001
   10   -0.00009
   11    0.00049
   12   -0.00040
   13    0.00060
   14   -0.00000
   15   -0.00000
   16   -0.05023
   17   -0.00041
   18   -0.00468
   19   -0.00057
   20    0.00055
   21    0.00000
   22    0.00230
   23    0.00093
   24   -0.00000
   25   -0.00008
   26    0.00046
   27   -0.00038
   28   -0.00058
   29   -0.00000
   30    0.00000
   31   -0.67741
   32   -0.02286
   33    0.01250
   34   -0.00068
   35   -0.00003
   36    0.00000
   37    0.00120
   38   -0.00035
   39   -0.00001
   40    0.00066
   41   -0.00068
   42    0.00002
   43   -0.00016
   44   -0.00000
   45    0.00000
   46   -0.71336
   47   -0.02419
   48    0.01391
   49    0.00065
   50   -0.00003
   51   -0.00000
   52   -0.00121
   53   -0.00045
   54    0.00000
   55    0.00061
   56   -0.00067
   57    0.00006
   58    0.00017
   59   -0.00000
   60    0.00000
   61   -0.08823
   62   -0.00286
   63    0.00575
   64   -0.00017
   65    0.00027
   66   -0.00000
   67    0.00209
   68    0.00011
   69   -0.00001
   70    0.00001
   71    0.00004
   72   -0.00005
   73    0.00004
   74   -0.00000
   75    0.00000
   76   -0.09597
   77   -0.00314
   78    0.00606
   79    0.00016
   80    0.00028
   81   -0.00000
   82   -0.00210
   83    0.00020
   84    0.00001
   85   -0.00000
   86    0.00004
   87   -0.00004
   88   -0.00005
   89    0.00000
   90    0.00000
   91   -0.00193
   92    0.00017
   93    0.00034
   94    0.00018
   95    0.00011
   96   -0.00000
   97   -0.00100
   98   -0.00231
   99    0.00000
  100    0.00004
  101   -0.00007
  102    0.00003
  103    0.00005
  104    0.00000
  105    0.00000
  106   -0.00176
  107    0.00018
  108    0.00014
  109   -0.00017
  110    0.00011
  111    0.00000
  112    0.00111
  113   -0.00237
  114   -0.00001
  115    0.00003
  116   -0.00006
  117    0.00004
  118   -0.00005
  119    0.00000
  120    0.00000
  121   -0.01265
  122    0.00085
  123   -0.00325
  124   -0.00061
  125   -0.00081
  126    0.00000
  127    0.00145
  128    0.00117
  129   -0.00000
  130   -0.00001
  131    0.00040
  132   -0.00039
  133    0.00070
  134   -0.00000
  135   -0.00000
  136   -0.00153
  137    0.00035
  138   -0.00337
  139   -0.00004
  140    0.00009
  141    0.00000
  142   -0.00053
  143   -0.00185
  144   -0.00000
  145   -0.00002
  146    0.00001
  147    0.00001
  148   -0.00006
  149   -0.00000
  150    0.00000
  151   -0.01334
  152    0.00089
  153   -0.00363
  154    0.00063
  155   -0.00085
  156   -0.00000
  157   -0.00142
  158    0.00137
  159    0.00000
  160   -0.00001
  161    0.00043
  162   -0.00042
  163   -0.00073
  164    0.00000
  165    0.00000
  166   -0.00167
  167    0.00036
  168   -0.00344
  169    0.00004
  170    0.00010
  171    0.00000
  172    0.00057
  173   -0.00190
  174   -0.00001
  175   -0.00002
  176    0.00001
  177    0.00001
  178    0.00007
  179    0.00000
  180   -0.00000
  181    0.00008
  182    0.00023
  183   -0.00294
  184    0.00001
  185   -0.00001
  186    0.00000
  187   -0.00142
  188   -0.00064
  189    0.00000
  190   -0.00001
  191   -0.00005
  192    0.00006
  193   -0.00001
  194    0.00000
  195   -0.00000
  196    0.00053
  197    0.00020
  198    0.00081
  199    0.00011
  200   -0.00003
  201   -0.00000
  202    0.00045
  203   -0.00006
  204   -0.00000
  205   -0.00001
  206   -0.00002
  207    0.00003
  208   -0.00002
  209    0.00000
  210    0.00000
  211    0.00007
  212    0.00022
  213   -0.00291
  214   -0.00001
  215   -0.00001
  216    0.00000
  217    0.00137
  218   -0.00066
  219   -0.00000
  220   -0.00001
  221   -0.00005
  222    0.00006
  223    0.00001
  224    0.00000
  225   -0.00000
  226    0.00050
  227    0.00018
  228    0.00096
  229   -0.00011
  230   -0.00003
  231    0.00000
  232   -0.00057
  233   -0.00003
  234    0.00000
  235   -0.00000
  236   -0.00002
  237    0.00002
  238    0.00002
  239   -0.00000
  240   -0.00000
  241   -0.00005
  242    0.00025
  243   -0.00097
  244   -0.00010
  245   -0.00005
  246    0.00000
  247    0.00055
  248    0.00044
  249   -0.00000
  250   -0.00003
  251   -0.00005
  252    0.00008
  253    0.00003
  254    0.00000
  255    0.00000
  256   -0.00004
  257   -0.00005
  258    0.00185
  259   -0.00003
  260    0.00002
  261    0.00000
  262   -0.00073
  263    0.00102
  264    0.00001
  265    0.00002
  266   -0.00001
  267   -0.00001
  268    0.00000
  269   -0.00000
  270    0.00000
  271   -0.00005
  272    0.00024
  273   -0.00077
  274    0.00011
  275   -0.00006
  276   -0.00000
  277   -0.00049
  278    0.00034
  279    0.00000
  280   -0.00003
  281   -0.00005
  282    0.00008
  283   -0.00003
  284    0.00000
  285    0.00000
  286   -0.00004
  287   -0.00005
  288    0.00193
  289    0.00004
  290    0.00002
  291   -0.00000
  292    0.00075
  293    0.00104
  294   -0.00000
  295    0.00002
  296   -0.00001
  297   -0.00001
  298   -0.00000
  299    0.00000
  300    0.00000
  301    0.00027
  302    0.00017
  303   -0.00002
  304   -0.00044
  305    0.00027
  306    0.00013
  307   -0.00002
  308   -0.00046
  309   -0.00001
  310   -0.00034
  311    0.00001
  312    0.00006
  313   -0.00001
  314   -0.00032
  315    0.00002
  316    0.00010
  317   -0.00001
  318   -0.00030
  319    0.00005
  320    0.00025
  321   -0.00001
  322   -0.00028
  323    0.00005
  324    0.00026
 Ene=   -10.3028
 Spin= Alpha
 Occup= 2.0
    1    0.04102
    2    0.00035
    3    0.00402
    4   -0.00045
    5    0.00074
    6    0.00000
    7    0.00179
    8    0.00106
    9   -0.00001
   10    0.00007
   11   -0.00038
   12    0.00031
   13    0.00078
   14    0.00000
   15   -0.00000
   16    0.03846
   17    0.00031
   18    0.00360
   19    0.00044
   20    0.00072
   21   -0.00000
   22   -0.00175
   23    0.00119
   24    0.00000
   25    0.00006
   26   -0.00035
   27    0.00029
   28   -0.00076
   29    0.00000
   30    0.00000
   31   -0.09435
   32   -0.00331
   33   -0.00253
   34   -0.00001
   35    0.00028
   36    0.00000
   37   -0.00183
   38    0.00001
   39    0.00000
   40    0.00017
   41   -0.00022
   42    0.00006
   43   -0.00000
   44   -0.00000
   45    0.00000
   46   -0.09597
   47   -0.00337
   48   -0.00249
   49    0.00001
   50    0.00028
   51    0.00000
   52    0.00186
   53    0.00010
   54   -0.00001
   55    0.00017
   56   -0.00023
   57    0.00006
   58   -0.00000
   59   -0.00000
   60    0.00000
   61    0.68016
   62    0.02299
   63   -0.01145
   64    0.00065
   65    0.00004
   66   -0.00000
   67   -0.00070
   68   -0.00034
   69    0.00001
   70   -0.00068
   71    0.00072
   72   -0.00004
   73   -0.00015
   74    0.00000
   75    0.00000
   76    0.71152
   77    0.02415
   78   -0.01269
   79   -0.00063
   80    0.00004
   81    0.00000
   82    0.00065
   83   -0.00040
   84    0.00000
   85   -0.00064
   86    0.00071
   87   -0.00007
   88    0.00016
   89    0.00000
   90    0.00000
   91    0.00147
   92   -0.00013
   93   -0.00025
   94   -0.00013
   95    0.00014
   96    0.00000
   97    0.00078
   98   -0.00304
   99   -0.00000
  100   -0.00003
  101    0.00005
  102   -0.00003
  103    0.00007
  104   -0.00000
  105    0.00000
  106    0.00135
  107   -0.00014
  108   -0.00012
  109    0.00013
  110    0.00014
  111   -0.00000
  112   -0.00084
  113   -0.00309
  114    0.00000
  115   -0.00002
  116    0.00005
  117   -0.00003
  118   -0.00006
  119    0.00000
  120    0.00000
  121   -0.00189
  122   -0.00013
  123    0.00260
  124   -0.00013
  125   -0.00013
  126    0.00000
  127    0.00095
  128   -0.00160
  129    0.00000
  130    0.00002
  131    0.00010
  132   -0.00012
  133    0.00013
  134   -0.00000
  135   -0.00000
  136    0.01274
  137   -0.00078
  138    0.00247
  139    0.00062
  140   -0.00082
  141   -0.00000
  142   -0.00165
  143    0.00073
  144    0.00000
  145    0.00000
  146   -0.00041
  147    0.00041
  148    0.00071
  149    0.00000
  150   -0.00000
  151   -0.00192
  152   -0.00013
  153    0.00257
  154    0.00013
  155   -0.00013
  156   -0.00000
  157   -0.00099
  158   -0.00160
  159    0.00001
  160    0.00002
  161    0.00010
  162   -0.00012
  163   -0.00013
  164   -0.00000
  165   -0.00000
  166    0.01334
  167   -0.00082
  168    0.00279
  169   -0.00064
  170   -0.00085
  171    0.00000
  172    0.00164
  173    0.00088
  174   -0.00001
  175    0.00001
  176   -0.00044
  177    0.00043
  178   -0.00074
  179    0.00000
  180    0.00000
  181   -0.00052
  182   -0.00014
  183   -0.00167
  184   -0.00011
  185   -0.00003
  186    0.00000
  187   -0.00087
  188   -0.00023
  189    0.00000
  190    0.00000
  191    0.00001
  192   -0.00001
  193   -0.00002
  194   -0.00000
  195    0.00000
  196    0.00006
  197   -0.00018
  198    0.00328
  199    0.00002
  200   -0.00002
  201   -0.00000
  202    0.00160
  203   -0.00069
  204   -0.00001
  205    0.00001
  206    0.00004
  207   -0.00005
  208   -0.00001
  209   -0.00000
  210   -0.00000
  211   -0.00050
  212   -0.00013
  213   -0.00179
  214    0.00011
  215   -0.00003
  216   -0.00000
  217    0.00095
  218   -0.00022
  219   -0.00000
  220    0.00000
  221    0.00001
  222   -0.00001
  223    0.00002
  224    0.00000
  225   -0.00000
  226    0.00006
  227   -0.00018
  228    0.00328
  229   -0.00002
  230   -0.00002
  231   -0.00000
  232   -0.00158
  233   -0.00069
  234    0.00001
  235    0.00001
  236    0.00004
  237   -0.00005
  238    0.00001
  239   -0.00000
  240   -0.00000
  241    0.00002
  242    0.00012
  243   -0.00218
  244    0.00001
  245    0.00000
  246    0.00000
  247    0.00091
  248    0.00117
  249   -0.00001
  250   -0.00003
  251   -0.00000
  252    0.00003
  253    0.00001
  254    0.00000
  255    0.00000
  256    0.00004
  257   -0.00027
  258    0.00150
  259    0.00010
  260   -0.00005
  261   -0.00000
  262   -0.00076
  263    0.00073
  264    0.00001
  265    0.00004
  266    0.00005
  267   -0.00009
  268    0.00003
  269   -0.00000
  270    0.00000
  271    0.00002
  272    0.00012
  273   -0.00221
  274   -0.00001
  275    0.00001
  276    0.00000
  277   -0.00092
  278    0.00117
  279    0.00000
  280   -0.00003
  281   -0.00000
  282    0.00003
  283   -0.00001
  284    0.00000
  285    0.00000
  286    0.00005
  287   -0.00027
  288    0.00135
  289   -0.00010
  290   -0.00005
  291    0.00000
  292    0.00072
  293    0.00065
  294   -0.00000
  295    0.00004
  296    0.00005
  297   -0.00009
  298   -0.00003
  299   -0.00000
  300    0.00000
  301    0.00009
  302    0.00050
  303   -0.00028
  304   -0.00029
  305    0.00009
  306    0.00051
  307   -0.00029
  308   -0.00026
  309   -0.00002
  310   -0.00016
  311    0.00001
  312    0.00037
  313   -0.00002
  314   -0.00019
  315    0.00001
  316    0.00036
  317   -0.00006
  318   -0.00034
  319    0.00003
  320    0.00038
  321   -0.00006
  322   -0.00034
  323    0.00002
  324    0.00036
 Ene=   -10.3027
 Spin= Alpha
 Occup= 2.0
    1   -0.07218
    2   -0.00083
    3   -0.01412
    4    0.00029
    5    0.00002
    6   -0.00000
    7   -0.00108
    8   -0.00011
    9    0.00001
   10   -0.00023
   11    0.00070
   12   -0.00047
   13    0.00002
   14   -0.00000
   15   -0.00000
   16    0.07496
   17    0.00083
   18    0.01449
   19    0.00033
   20   -0.00002
   21   -0.00000
   22   -0.00124
   23    0.00011
   24   -0.00000
   25    0.00023
   26   -0.00073
   27    0.00050
   28    0.00002
   29    0.00000
   30   -0.00000
   31    0.52093
   32    0.01919