[Molden Format]
[Title]
Written by molden_convert.py. The label 'orca' is added to let multiwfn can correctly read it
[Atoms] AU
C     1     6            -2.727555        0.000038       -0.070959
C     2     6             2.716179       -0.000038       -0.086738
C     3     6             1.394580        2.360136       -0.085737
C     4     6            -1.405673        2.360192       -0.078027
C     5     6             1.394485       -2.360173       -0.085831
C     6     6            -1.405729       -2.360116       -0.077800
C     7     6            -5.419394        0.000094       -0.061700
C     8     6             5.407772       -0.000113       -0.093088
C     9     6             2.778634        4.574630       -0.093636
C     10    6             2.778445       -4.574706       -0.094071
C     11    6            -2.789292        4.574989       -0.078461
C     12    6            -2.789424       -4.574894       -0.077762
C     13    6            -6.747758       -2.328312       -0.057939
C     14    6            -6.747701        2.328520       -0.058355
C     15    6             6.736382       -2.328029       -0.099721
C     16    6             6.736476        2.327783       -0.099513
C     17    6             5.441050        4.567090       -0.101573
C     18    6             5.440861       -4.567297       -0.102045
C     19    6            -5.451746        4.567524       -0.068162
C     20    6            -5.451879       -4.567336       -0.067350
H     21    1             1.836190        6.394587       -0.094278
H     22    1             1.835925       -6.394644       -0.094940
H     23    1            -1.846338        6.394738       -0.086927
H     24    1            -1.846508       -6.394663       -0.085907
H     25    1            -8.802306       -2.297246       -0.050720
H     26    1            -8.802230        2.297510       -0.051136
H     27    1             8.790703       -2.296130       -0.104804
H     28    1             8.790797        2.295790       -0.104596
H     29    1             6.446214        6.357038       -0.110398
H     30    1             6.445950       -6.357284       -0.111097
H     31    1            -6.456419        6.357851       -0.067520
H     32    1            -6.456570       -6.357662       -0.066329
[GTO]
    1 0
 s   6 1.00
             3047.5249023               0.5363340
              457.3695068               0.9894510
              103.9486923               1.5972821
               29.2101555               2.0791869
                9.2866631               1.7741740
                3.1639271               0.6125800
 s   3 1.00
                7.8682718              -0.3995560
                1.8812881              -0.1841550
                0.5442490               0.5163900
 s   1 1.00
                0.1687140               0.1876180
 p   3 1.00
                7.8682718               1.2960830
                1.8812881               0.9937540
                0.5442490               0.4959530
 p   1 1.00
                0.1687140               0.1541280
 d   1 1.00
                0.8000000               1.9292010

    2 0
 s   6 1.00
             3047.5249023               0.5363340
              457.3695068               0.9894510
              103.9486923               1.5972821
               29.2101555               2.0791869
                9.2866631               1.7741740
                3.1639271               0.6125800
 s   3 1.00
                7.8682718              -0.3995560
                1.8812881              -0.1841550
                0.5442490               0.5163900
 s   1 1.00
                0.1687140               0.1876180
 p   3 1.00
                7.8682718               1.2960830
                1.8812881               0.9937540
                0.5442490               0.4959530
 p   1 1.00
                0.1687140               0.1541280
 d   1 1.00
                0.8000000               1.9292010

    3 0
 s   6 1.00
             3047.5249023               0.5363340
              457.3695068               0.9894510
              103.9486923               1.5972821
               29.2101555               2.0791869
                9.2866631               1.7741740
                3.1639271               0.6125800
 s   3 1.00
                7.8682718              -0.3995560
                1.8812881              -0.1841550
                0.5442490               0.5163900
 s   1 1.00
                0.1687140               0.1876180
 p   3 1.00
                7.8682718               1.2960830
                1.8812881               0.9937540
                0.5442490               0.4959530
 p   1 1.00
                0.1687140               0.1541280
 d   1 1.00
                0.8000000               1.9292010

    4 0
 s   6 1.00
             3047.5249023               0.5363340
              457.3695068               0.9894510
              103.9486923               1.5972821
               29.2101555               2.0791869
                9.2866631               1.7741740
                3.1639271               0.6125800
 s   3 1.00
                7.8682718              -0.3995560
                1.8812881              -0.1841550
                0.5442490               0.5163900
 s   1 1.00
                0.1687140               0.1876180
 p   3 1.00
                7.8682718               1.2960830
                1.8812881               0.9937540
                0.5442490               0.4959530
 p   1 1.00
                0.1687140               0.1541280
 d   1 1.00
                0.8000000               1.9292010

    5 0
 s   6 1.00
             3047.5249023               0.5363340
              457.3695068               0.9894510
              103.9486923               1.5972821
               29.2101555               2.0791869
                9.2866631               1.7741740
                3.1639271               0.6125800
 s   3 1.00
                7.8682718              -0.3995560
                1.8812881              -0.1841550
                0.5442490               0.5163900
 s   1 1.00
                0.1687140               0.1876180
 p   3 1.00
                7.8682718               1.2960830
                1.8812881               0.9937540
                0.5442490               0.4959530
 p   1 1.00
                0.1687140               0.1541280
 d   1 1.00
                0.8000000               1.9292010

    6 0
 s   6 1.00
             3047.5249023               0.5363340
              457.3695068               0.9894510
              103.9486923               1.5972821
               29.2101555               2.0791869
                9.2866631               1.7741740
                3.1639271               0.6125800
 s   3 1.00
                7.8682718              -0.3995560
                1.8812881              -0.1841550
                0.5442490               0.5163900
 s   1 1.00
                0.1687140               0.1876180
 p   3 1.00
                7.8682718               1.2960830
                1.8812881               0.9937540
                0.5442490               0.4959530
 p   1 1.00
                0.1687140               0.1541280
 d   1 1.00
                0.8000000               1.9292010

    7 0
 s   6 1.00
             3047.5249023               0.5363340
              457.3695068               0.9894510
              103.9486923               1.5972821
               29.2101555               2.0791869
                9.2866631               1.7741740
                3.1639271               0.6125800
 s   3 1.00
                7.8682718              -0.3995560
                1.8812881              -0.1841550
                0.5442490               0.5163900
 s   1 1.00
                0.1687140               0.1876180
 p   3 1.00
                7.8682718               1.2960830
                1.8812881               0.9937540
                0.5442490               0.4959530
 p   1 1.00
                0.1687140               0.1541280
 d   1 1.00
                0.8000000               1.9292010

    8 0
 s   6 1.00
             3047.5249023               0.5363340
              457.3695068               0.9894510
              103.9486923               1.5972821
               29.2101555               2.0791869
                9.2866631               1.7741740
                3.1639271               0.6125800
 s   3 1.00
                7.8682718              -0.3995560
                1.8812881              -0.1841550
                0.5442490               0.5163900
 s   1 1.00
                0.1687140               0.1876180
 p   3 1.00
                7.8682718               1.2960830
                1.8812881               0.9937540
                0.5442490               0.4959530
 p   1 1.00
                0.1687140               0.1541280
 d   1 1.00
                0.8000000               1.9292010

    9 0
 s   6 1.00
             3047.5249023               0.5363340
              457.3695068               0.9894510
              103.9486923               1.5972821
               29.2101555               2.0791869
                9.2866631               1.7741740
                3.1639271               0.6125800
 s   3 1.00
                7.8682718              -0.3995560
                1.8812881              -0.1841550
                0.5442490               0.5163900
 s   1 1.00
                0.1687140               0.1876180
 p   3 1.00
                7.8682718               1.2960830
                1.8812881               0.9937540
                0.5442490               0.4959530
 p   1 1.00
                0.1687140               0.1541280
 d   1 1.00
                0.8000000               1.9292010

    10 0
 s   6 1.00
             3047.5249023               0.5363340
              457.3695068               0.9894510
              103.9486923               1.5972821
               29.2101555               2.0791869
                9.2866631               1.7741740
                3.1639271               0.6125800
 s   3 1.00
                7.8682718              -0.3995560
                1.8812881              -0.1841550
                0.5442490               0.5163900
 s   1 1.00
                0.1687140               0.1876180
 p   3 1.00
                7.8682718               1.2960830
                1.8812881               0.9937540
                0.5442490               0.4959530
 p   1 1.00
                0.1687140               0.1541280
 d   1 1.00
                0.8000000               1.9292010

    11 0
 s   6 1.00
             3047.5249023               0.5363340
              457.3695068               0.9894510
              103.9486923               1.5972821
               29.2101555               2.0791869
                9.2866631               1.7741740
                3.1639271               0.6125800
 s   3 1.00
                7.8682718              -0.3995560
                1.8812881              -0.1841550
                0.5442490               0.5163900
 s   1 1.00
                0.1687140               0.1876180
 p   3 1.00
                7.8682718               1.2960830
                1.8812881               0.9937540
                0.5442490               0.4959530
 p   1 1.00
                0.1687140               0.1541280
 d   1 1.00
                0.8000000               1.9292010

    12 0
 s   6 1.00
             3047.5249023               0.5363340
              457.3695068               0.9894510
              103.9486923               1.5972821
               29.2101555               2.0791869
                9.2866631               1.7741740
                3.1639271               0.6125800
 s   3 1.00
                7.8682718              -0.3995560
                1.8812881              -0.1841550
                0.5442490               0.5163900
 s   1 1.00
                0.1687140               0.1876180
 p   3 1.00
                7.8682718               1.2960830
                1.8812881               0.9937540
                0.5442490               0.4959530
 p   1 1.00
                0.1687140               0.1541280
 d   1 1.00
                0.8000000               1.9292010

    13 0
 s   6 1.00
             3047.5249023               0.5363340
              457.3695068               0.9894510
              103.9486923               1.5972821
               29.2101555               2.0791869
                9.2866631               1.7741740
                3.1639271               0.6125800
 s   3 1.00
                7.8682718              -0.3995560
                1.8812881              -0.1841550
                0.5442490               0.5163900
 s   1 1.00
                0.1687140               0.1876180
 p   3 1.00
                7.8682718               1.2960830
                1.8812881               0.9937540
                0.5442490               0.4959530
 p   1 1.00
                0.1687140               0.1541280
 d   1 1.00
                0.8000000               1.9292010

    14 0
 s   6 1.00
             3047.5249023               0.5363340
              457.3695068               0.9894510
              103.9486923               1.5972821
               29.2101555               2.0791869
                9.2866631               1.7741740
                3.1639271               0.6125800
 s   3 1.00
                7.8682718              -0.3995560
                1.8812881              -0.1841550
                0.5442490               0.5163900
 s   1 1.00
                0.1687140               0.1876180
 p   3 1.00
                7.8682718               1.2960830
                1.8812881               0.9937540
                0.5442490               0.4959530
 p   1 1.00
                0.1687140               0.1541280
 d   1 1.00
                0.8000000               1.9292010

    15 0
 s   6 1.00
             3047.5249023               0.5363340
              457.3695068               0.9894510
              103.9486923               1.5972821
               29.2101555               2.0791869
                9.2866631               1.7741740
                3.1639271               0.6125800
 s   3 1.00
                7.8682718              -0.3995560
                1.8812881              -0.1841550
                0.5442490               0.5163900
 s   1 1.00
                0.1687140               0.1876180
 p   3 1.00
                7.8682718               1.2960830
                1.8812881               0.9937540
                0.5442490               0.4959530
 p   1 1.00
                0.1687140               0.1541280
 d   1 1.00
                0.8000000               1.9292010

    16 0
 s   6 1.00
             3047.5249023               0.5363340
              457.3695068               0.9894510
              103.9486923               1.5972821
               29.2101555               2.0791869
                9.2866631               1.7741740
                3.1639271               0.6125800
 s   3 1.00
                7.8682718              -0.3995560
                1.8812881              -0.1841550
                0.5442490               0.5163900
 s   1 1.00
                0.1687140               0.1876180
 p   3 1.00
                7.8682718               1.2960830
                1.8812881               0.9937540
                0.5442490               0.4959530
 p   1 1.00
                0.1687140               0.1541280
 d   1 1.00
                0.8000000               1.9292010

    17 0
 s   6 1.00
             3047.5249023               0.5363340
              457.3695068               0.9894510
              103.9486923               1.5972821
               29.2101555               2.0791869
                9.2866631               1.7741740
                3.1639271               0.6125800
 s   3 1.00
                7.8682718              -0.3995560
                1.8812881              -0.1841550
                0.5442490               0.5163900
 s   1 1.00
                0.1687140               0.1876180
 p   3 1.00
                7.8682718               1.2960830
                1.8812881               0.9937540
                0.5442490               0.4959530
 p   1 1.00
                0.1687140               0.1541280
 d   1 1.00
                0.8000000               1.9292010

    18 0
 s   6 1.00
             3047.5249023               0.5363340
              457.3695068               0.9894510
              103.9486923               1.5972821
               29.2101555               2.0791869
                9.2866631               1.7741740
                3.1639271               0.6125800
 s   3 1.00
                7.8682718              -0.3995560
                1.8812881              -0.1841550
                0.5442490               0.5163900
 s   1 1.00
                0.1687140               0.1876180
 p   3 1.00
                7.8682718               1.2960830
                1.8812881               0.9937540
                0.5442490               0.4959530
 p   1 1.00
                0.1687140               0.1541280
 d   1 1.00
                0.8000000               1.9292010

    19 0
 s   6 1.00
             3047.5249023               0.5363340
              457.3695068               0.9894510
              103.9486923               1.5972821
               29.2101555               2.0791869
                9.2866631               1.7741740
                3.1639271               0.6125800
 s   3 1.00
                7.8682718              -0.3995560
                1.8812881              -0.1841550
                0.5442490               0.5163900
 s   1 1.00
                0.1687140               0.1876180
 p   3 1.00
                7.8682718               1.2960830
                1.8812881               0.9937540
                0.5442490               0.4959530
 p   1 1.00
                0.1687140               0.1541280
 d   1 1.00
                0.8000000               1.9292010

    20 0
 s   6 1.00
             3047.5249023               0.5363340
              457.3695068               0.9894510
              103.9486923               1.5972821
               29.2101555               2.0791869
                9.2866631               1.7741740
                3.1639271               0.6125800
 s   3 1.00
                7.8682718              -0.3995560
                1.8812881              -0.1841550
                0.5442490               0.5163900
 s   1 1.00
                0.1687140               0.1876180
 p   3 1.00
                7.8682718               1.2960830
                1.8812881               0.9937540
                0.5442490               0.4959530
 p   1 1.00
                0.1687140               0.1541280
 d   1 1.00
                0.8000000               1.9292010

    21 0
 s   3 1.00
               18.7311363               0.2149350
                2.8253939               0.3645710
                0.6401220               0.4150510
 s   1 1.00
                0.1612780               0.1813810

    22 0
 s   3 1.00
               18.7311363               0.2149350
                2.8253939               0.3645710
                0.6401220               0.4150510
 s   1 1.00
                0.1612780               0.1813810

    23 0
 s   3 1.00
               18.7311363               0.2149350
                2.8253939               0.3645710
                0.6401220               0.4150510
 s   1 1.00
                0.1612780               0.1813810

    24 0
 s   3 1.00
               18.7311363               0.2149350
                2.8253939               0.3645710
                0.6401220               0.4150510
 s   1 1.00
                0.1612780               0.1813810

    25 0
 s   3 1.00
               18.7311363               0.2149350
                2.8253939               0.3645710
                0.6401220               0.4150510
 s   1 1.00
                0.1612780               0.1813810

    26 0
 s   3 1.00
               18.7311363               0.2149350
                2.8253939               0.3645710
                0.6401220               0.4150510
 s   1 1.00
                0.1612780               0.1813810

    27 0
 s   3 1.00
               18.7311363               0.2149350
                2.8253939               0.3645710
                0.6401220               0.4150510
 s   1 1.00
                0.1612780               0.1813810

    28 0
 s   3 1.00
               18.7311363               0.2149350
                2.8253939               0.3645710
                0.6401220               0.4150510
 s   1 1.00
                0.1612780               0.1813810

    29 0
 s   3 1.00
               18.7311363               0.2149350
                2.8253939               0.3645710
                0.6401220               0.4150510
 s   1 1.00
                0.1612780               0.1813810

    30 0
 s   3 1.00
               18.7311363               0.2149350
                2.8253939               0.3645710
                0.6401220               0.4150510
 s   1 1.00
                0.1612780               0.1813810

    31 0
 s   3 1.00
               18.7311363               0.2149350
                2.8253939               0.3645710
                0.6401220               0.4150510
 s   1 1.00
                0.1612780               0.1813810

    32 0
 s   3 1.00
               18.7311363               0.2149350
                2.8253939               0.3645710
                0.6401220               0.4150510
 s   1 1.00
                0.1612780               0.1813810


[MO]
Ene= -10.3028  
Spin= Alpha
Occup= 2.0000    
     1     -0.05390000
     2     -0.00046000
     3     -0.00530000
     4      0.00059000
     5      0.00057000
     6      0.00000000
     7     -0.00234000
     8      0.00078000
     9      0.00001000
    10     -0.00040000
    11      0.00000000
    12      0.00000000
    13     -0.00033486
    14      0.00060000
    15     -0.05023000
    16     -0.00041000
    17     -0.00468000
    18     -0.00057000
    19      0.00055000
    20      0.00000000
    21      0.00230000
    22      0.00093000
    23      0.00000000
    24     -0.00038000
    25      0.00000000
    26      0.00000000
    27     -0.00031177
    28     -0.00058000
    29     -0.67741001
    30     -0.02286000
    31      0.01250000
    32     -0.00068000
    33     -0.00003000
    34      0.00000000
    35      0.00120000
    36     -0.00035000
    37     -0.00001000
    38      0.00002000
    39      0.00000000
    40      0.00000000
    41      0.00077365
    42     -0.00016000
    43     -0.71336001
    44     -0.02419000
    45      0.01391000
    46      0.00065000
    47     -0.00003000
    48      0.00000000
    49     -0.00121000
    50     -0.00045000
    51      0.00000000
    52      0.00006000
    53      0.00000000
    54      0.00000000
    55      0.00073901
    56      0.00017000
    57     -0.08823000
    58     -0.00286000
    59      0.00575000
    60     -0.00017000
    61      0.00027000
    62      0.00000000
    63      0.00209000
    64      0.00011000
    65     -0.00001000
    66     -0.00005000
    67      0.00000000
    68      0.00000000
    69     -0.00001732
    70      0.00004000
    71     -0.09597000
    72     -0.00314000
    73      0.00606000
    74      0.00016000
    75      0.00028000
    76      0.00000000
    77     -0.00210000
    78      0.00020000
    79      0.00001000
    80     -0.00004000
    81      0.00000000
    82      0.00000000
    83     -0.00002309
    84     -0.00005000
    85     -0.00193000
    86      0.00017000
    87      0.00034000
    88      0.00018000
    89      0.00011000
    90      0.00000000
    91     -0.00100000
    92     -0.00231000
    93      0.00000000
    94      0.00003000
    95      0.00000000
    96      0.00000000
    97      0.00006351
    98      0.00005000
    99     -0.00176000
   100      0.00018000
   101      0.00014000
   102     -0.00017000
   103      0.00011000
   104      0.00000000
   105      0.00111000
   106     -0.00237000
   107     -0.00001000
   108      0.00003667
   109      0.00000000
   110      0.00000000
   111      0.00005196
   112     -0.00005000
   113     -0.01265000
   114      0.00085000
   115     -0.00325000
   116     -0.00061000
   117     -0.00081000
   118      0.00000000
   119      0.00145000
   120      0.00117000
   121      0.00000000
   122     -0.00039000
   123      0.00000000
   124      0.00000000
   125     -0.00023671
   126      0.00070000
   127     -0.00153000
   128      0.00035000
   129     -0.00337000
   130     -0.00004000
   131      0.00009000
   132      0.00000000
   133     -0.00053000
   134     -0.00185000
   135      0.00000000
   136      0.00001000
   137      0.00000000
   138      0.00000000
   139     -0.00001732
   140     -0.00006000
   141     -0.01334000
   142      0.00089000
   143     -0.00363000
   144      0.00063000
   145     -0.00085000
   146      0.00000000
   147     -0.00142000
   148      0.00137000
   149      0.00000000
   150     -0.00042000
   151      0.00000000
   152      0.00000000
   153     -0.00025403
   154     -0.00073000
   155     -0.00167000
   156      0.00036000
   157     -0.00344000
   158      0.00004000
   159      0.00010000
   160      0.00000000
   161      0.00057000
   162     -0.00190000
   163     -0.00001000
   164      0.00001000
   165      0.00000000
   166      0.00000000
   167     -0.00001732
   168      0.00007000
   169      0.00008000
   170      0.00023000
   171     -0.00294000
   172      0.00001000
   173     -0.00001000
   174      0.00000000
   175     -0.00142000
   176     -0.00064000
   177      0.00000000
   178      0.00006000
   179      0.00000000
   180      0.00000000
   181      0.00002309
   182     -0.00001000
   183      0.00053000
   184      0.00020000
   185      0.00081000
   186      0.00011000
   187     -0.00003000
   188      0.00000000
   189      0.00045000
   190     -0.00006000
   191      0.00000000
   192      0.00003000
   193      0.00000000
   194      0.00000000
   195      0.00000577
   196     -0.00002000
   197      0.00007000
   198      0.00022000
   199     -0.00291000
   200     -0.00001000
   201     -0.00001000
   202      0.00000000
   203      0.00137000
   204     -0.00066000
   205      0.00000000
   206      0.00006000
   207      0.00000000
   208      0.00000000
   209      0.00002309
   210      0.00001000
   211      0.00050000
   212      0.00018000
   213      0.00096000
   214     -0.00011000
   215     -0.00003000
   216      0.00000000
   217     -0.00057000
   218     -0.00003000
   219      0.00000000
   220      0.00002000
   221      0.00000000
   222      0.00000000
   223      0.00001155
   224      0.00002000
   225     -0.00005000
   226      0.00025000
   227     -0.00097000
   228     -0.00010000
   229     -0.00005000
   230      0.00000000
   231      0.00055000
   232      0.00044000
   233      0.00000000
   234      0.00008000
   235      0.00000000
   236      0.00000000
   237      0.00001155
   238      0.00003000
   239     -0.00004000
   240     -0.00005000
   241      0.00185000
   242     -0.00003000
   243      0.00002000
   244      0.00000000
   245     -0.00073000
   246      0.00102000
   247      0.00001000
   248     -0.00001000
   249      0.00000000
   250      0.00000000
   251      0.00001732
   252      0.00000000
   253     -0.00005000
   254      0.00024000
   255     -0.00077000
   256      0.00011000
   257     -0.00006000
   258      0.00000000
   259     -0.00049000
   260      0.00034000
   261      0.00000000
   262      0.00008000
   263      0.00000000
   264      0.00000000
   265      0.00001155
   266     -0.00003000
   267     -0.00004000
   268     -0.00005000
   269      0.00193000
   270      0.00004000
   271      0.00002000
   272      0.00000000
   273      0.00075000
   274      0.00104000
   275      0.00000000
   276     -0.00001000
   277      0.00000000
   278      0.00000000
   279      0.00001732
   280      0.00000000
   281      0.00027000
   282      0.00017000
   283     -0.00002000
   284     -0.00044000
   285      0.00027000
   286      0.00013000
   287     -0.00002000
   288     -0.00046000
   289     -0.00001000
   290     -0.00034000
   291      0.00001000
   292      0.00006000
   293     -0.00001000
   294     -0.00032000
   295      0.00002000
   296      0.00010000
   297     -0.00001000
   298     -0.00030000
   299      0.00005000
   300      0.00025000
   301     -0.00001000
   302     -0.00028000
   303      0.00005000
   304      0.00026000
Ene= -10.3028  
Spin= Alpha
Occup= 2.0000    
     1      0.04102000
     2      0.00035000
     3      0.00402000
     4     -0.00045000
     5      0.00074000
     6      0.00000000
     7      0.00179000
     8      0.00106000
     9     -0.00001000
    10      0.00031000
    11      0.00000000
    12      0.00000000
    13      0.00025981
    14      0.00078000
    15      0.03846000
    16      0.00031000
    17      0.00360000
    18      0.00044000
    19      0.00072000
    20      0.00000000
    21     -0.00175000
    22      0.00119000
    23      0.00000000
    24      0.00029000
    25      0.00000000
    26      0.00000000
    27      0.00023671
    28     -0.00076000
    29     -0.09435000
    30     -0.00331000
    31     -0.00253000
    32     -0.00001000
    33      0.00028000
    34      0.00000000
    35     -0.00183000
    36      0.00001000
    37      0.00000000
    38      0.00005667
    39      0.00000000
    40      0.00000000
    41      0.00022517
    42      0.00000000
    43     -0.09597000
    44     -0.00337000
    45     -0.00249000
    46      0.00001000
    47      0.00028000
    48      0.00000000
    49      0.00186000
    50      0.00010000
    51     -0.00001000