
    
                                 *****************
                                 * O   R   C   A *
                                 *****************

                                            #,                                       
                                            ###                                      
                                            ####                                     
                                            #####                                    
                                            ######                                   
                                           ########,                                 
                                     ,,################,,,,,                         
                               ,,#################################,,                 
                          ,,##########################################,,             
                       ,#########################################, ''#####,          
                    ,#############################################,,   '####,        
                  ,##################################################,,,,####,       
                ,###########''''           ''''###############################       
              ,#####''   ,,,,##########,,,,          '''####'''          '####       
            ,##' ,,,,###########################,,,                        '##       
           ' ,,###''''                  '''############,,,                           
         ,,##''                                '''############,,,,        ,,,,,,###''
      ,#''                                            '''#######################'''  
     '                                                          ''''####''''         
             ,#######,   #######,   ,#######,      ##                                
            ,#'     '#,  ##    ##  ,#'     '#,    #''#        ######   ,####,        
            ##       ##  ##   ,#'  ##            #'  '#       #        #'  '#        
            ##       ##  #######   ##           ,######,      #####,   #    #        
            '#,     ,#'  ##    ##  '#,     ,#' ,#      #,         ##   #,  ,#        
             '#######'   ##     ##  '#######'  #'      '#     #####' # '####'        

    
 
       ***********************************************************
       *                    TeraChem v1.9-2021.10-dev            *
       *                 Hg Version:                             *
       *                   Development Version                   *
       *           Chemistry at the Speed of Graphics!           *
       ***********************************************************
       *        The original data is generated by TeraChem       *
       *             Converted by read_excitation.py             *
       ***********************************************************

------------------------------------------------------------------------------
            THIS OUTPUT ONLY CONTAINS EXCITATION CI COEFFICIENTS
                        OTHER INFORMATION ARE INVALID
------------------------------------------------------------------------------
    

------------------------------------------------------------------------------
                        ORCA TD-DFT/TDA CALCULATION
------------------------------------------------------------------------------

Input orbitals are from        ... perylene-orca.out.gbw
CI-vector output               ... perylene-orca.out.cis
Tamm-Dancoff approximation     ... operative
CIS-Integral strategy          ... AO-integrals
Integral handling              ... AO integral Direct
Max. core memory used          ... 2048 MB
Reference state                ... RHF
Generation of triplets         ... off
Follow IRoot                   ... off
Number of operators            ... 1
Orbital ranges used for CIS calculation:
 Operator 0:  Orbitals  0...65  to 66...1631
XAS localization array:
 Operator 0:  Orbitals  -1... -1
    

     *** TD-DFT CALCULATION INITIALIZED ***

------------------------
DAVIDSON-DIAGONALIZATION
------------------------

Dimension of the eigenvalue problem            ... 131072
Number of roots to be determined               ...      5
Maximum size of the expansion space            ...     50
Maximum number of iterations                   ...    100
Convergence tolerance for the residual         ...    2.500e-07
Convergence tolerance for the energies         ...    2.500e-07
Orthogonality tolerance                        ...    1.000e-14
Level Shift                                    ...    0.000e+00
Constructing the preconditioner                ... o.k.
Building the initial guess                     ... o.k.
Number of trial vectors determined             ...     50


                       ****Iteration    0****

   Memory handling for direct AO based CIS:
   Memory per vector needed      ...   128 MB
   Memory needed                 ...  2048 MB
   Memory available              ...  2048 MB
   Number of vectors per batch   ...    16
   Number of batches             ...     2
   Time for densities:            0.000
   Time for RI-J (Direct):        0.000
   Time for K (COSX):             0.000
   Time for XC-Integration:       0.000
   Time for Sigma-Completion:     0.000
   Time for densities:            0.000
   Time for RI-J (Direct):        0.000
   Time for K (COSX):             0.000
   Time for XC-Integration:       0.000
   Time for Sigma-Completion:     0.000
   Size of expansion space: 15
   Lowest Energy          :     0.000000000000
   Maximum Energy change  :     0.000000000000 (vector 1)
   Maximum residual norm  :     0.000000000000


      *** CONVERGENCE OF RESIDUAL NORM REACHED ***

Storing the converged CI vectors               ... hello_world.cis

                 *** DAVIDSON DONE ***

Total time for solving the CIS problem:   702.861sec
    

------------------------------------
TD-DFT/TDA EXCITED STATES (SINGLETS)
------------------------------------

the weight of the individual excitations are printed if larger than 1.0e-02
STATE  1:  E=   0.134607 au      3.663 eV    29542.8 cm**-1 <S**2> =   0.000000
   65a -> 66a  :   0.943550 (c=-0.97136500)
   64a -> 67a  :   0.017434 (c=-0.13203600)
   62a -> 70a  :   0.010642 (c=-0.10315900)
   63a -> 69a  :   0.007434 (c=0.08621800)
   65a -> 73a  :   0.001301 (c=0.03606600)
   57a -> 66a  :   0.001244 (c=-0.03527700)
   61a -> 68a  :   0.001082 (c=-0.03289900)
   59a -> 93a  :   0.000586 (c=0.02421100)
   45a -> 69a  :   0.000523 (c=0.02286800)
   53a -> 74a  :   0.000467 (c=-0.02161000)
   51a -> 67a  :   0.000467 (c=-0.02160400)
   59a -> 94a  :   0.000460 (c=-0.02144400)
   54a -> 88a  :   0.000460 (c=-0.02144100)
   39a -> 74a  :   0.000382 (c=-0.01954000)
   59a -> 80a  :   0.000361 (c=-0.01899600)
   50a -> 88a  :   0.000322 (c=0.01794800)
   61a -> 67a  :   0.000280 (c=-0.01673000)
   59a -> 74a  :   0.000278 (c=-0.01668200)
   47a -> 87a  :   0.000267 (c=-0.01634100)
   39a -> 82a  :   0.000265 (c=0.01629100)
   54a -> 77a  :   0.000264 (c=-0.01626100)
   63a -> 91a  :   0.000264 (c=0.01625400)
   40a -> 72a  :   0.000258 (c=-0.01606700)
   64a -> 83a  :   0.000256 (c=-0.01600600)
   46a -> 86a  :   0.000249 (c=0.01577300)
   64a -> 68a  :   0.000235 (c=0.01531500)
   56a -> 99a  :   0.000229 (c=-0.01514600)
   49a -> 106a  :   0.000221 (c=-0.01486100)
   58a -> 71a  :   0.000209 (c=-0.01445800)
   54a -> 72a  :   0.000200 (c=0.01414500)
   56a -> 100a  :   0.000197 (c=-0.01402700)
   50a -> 72a  :   0.000197 (c=-0.01402300)
   53a -> 80a  :   0.000184 (c=-0.01355600)
   46a -> 72a  :   0.000171 (c=-0.01305800)
   50a -> 81a  :   0.000169 (c=0.01299400)
   57a -> 73a  :   0.000165 (c=0.01283500)
   44a -> 121a  :   0.000152 (c=0.01231600)
   53a -> 97a  :   0.000150 (c=-0.01224900)
   43a -> 79a  :   0.000146 (c=0.01210200)
   56a -> 76a  :   0.000130 (c=0.01139800)
   46a -> 77a  :   0.000127 (c=0.01128800)
   60a -> 90a  :   0.000126 (c=0.01123400)
   60a -> 102a  :   0.000123 (c=0.01107700)
   53a -> 93a  :   0.000122 (c=-0.01102600)
   46a -> 81a  :   0.000121 (c=0.01098700)
   52a -> 84a  :   0.000117 (c=0.01080400)
   60a -> 85a  :   0.000117 (c=-0.01080100)
   48a -> 101a  :   0.000115 (c=0.01073800)
   36a -> 76a  :   0.000105 (c=0.01026200)
   48a -> 98a  :   0.000104 (c=0.01017800)

STATE  2:  E=   0.157986 au      4.299 eV    34673.9 cm**-1 <S**2> =   0.000000
   65a -> 67a  :   0.533462 (c=0.73038500)
   64a -> 66a  :   0.329886 (c=-0.57435700)
   62a -> 69a  :   0.042711 (c=0.20666700)
   63a -> 70a  :   0.040133 (c=0.20033300)
   65a -> 68a  :   0.029291 (c=0.17114700)
   61a -> 66a  :   0.007074 (c=0.08410600)
   61a -> 73a  :   0.005570 (c=-0.07463200)
   57a -> 68a  :   0.005434 (c=0.07371600)
   65a -> 83a  :   0.001468 (c=0.03831000)
   51a -> 66a  :   0.000968 (c=-0.03111800)
   58a -> 78a  :   0.000896 (c=-0.02992900)
   55a -> 71a  :   0.000774 (c=0.02782000)
   55a -> 69a  :   0.000310 (c=-0.01761100)
   58a -> 70a  :   0.000204 (c=0.01429500)
   62a -> 71a  :   0.000168 (c=0.01296800)
   45a -> 70a  :   0.000134 (c=0.01157700)
   63a -> 78a  :   0.000126 (c=0.01124600)
   62a -> 91a  :   0.000109 (c=0.01046400)
   64a -> 73a  :   0.000105 (c=-0.01024400)

STATE  3:  E=   0.167467 au      4.557 eV    36754.7 cm**-1 <S**2> =   0.000000
   63a -> 66a  :   0.479466 (c=-0.69243500)
   65a -> 69a  :   0.375608 (c=-0.61286900)
   62a -> 67a  :   0.069306 (c=-0.26326100)
   64a -> 70a  :   0.058629 (c=0.24213400)
   55a -> 68a  :   0.003750 (c=0.06123400)
   61a -> 78a  :   0.002961 (c=-0.05441700)
   58a -> 73a  :   0.002082 (c=-0.04563300)
   61a -> 70a  :   0.001927 (c=0.04390300)
   57a -> 71a  :   0.001670 (c=0.04086900)
   45a -> 66a  :   0.000999 (c=-0.03160500)
   62a -> 68a  :   0.000816 (c=0.02856900)
   51a -> 70a  :   0.000474 (c=0.02177600)
   65a -> 91a  :   0.000357 (c=-0.01889100)
   62a -> 83a  :   0.000306 (c=-0.01750400)
   55a -> 67a  :   0.000126 (c=0.01120700)

STATE  4:  E=   0.175352 au      4.772 eV    38485.3 cm**-1 <S**2> =   0.000000
   65a -> 68a  :   0.466029 (c=-0.68266300)
   61a -> 66a  :   0.259770 (c=0.50967600)
   64a -> 66a  :   0.168970 (c=-0.41106000)
   65a -> 67a  :   0.057775 (c=-0.24036500)
   63a -> 70a  :   0.014944 (c=0.12224600)
   51a -> 66a  :   0.010349 (c=-0.10172800)
   65a -> 83a  :   0.005048 (c=-0.07105000)
   62a -> 69a  :   0.003524 (c=-0.05936200)
   61a -> 73a  :   0.001775 (c=-0.04212700)
   62a -> 71a  :   0.001666 (c=0.04081700)
   57a -> 68a  :   0.001352 (c=-0.03676700)
   60a -> 87a  :   0.000268 (c=-0.01635900)
   45a -> 70a  :   0.000206 (c=0.01435900)
   47a -> 98a  :   0.000199 (c=-0.01412400)
   47a -> 85a  :   0.000171 (c=-0.01305800)
   43a -> 104a  :   0.000167 (c=-0.01292500)
   45a -> 78a  :   0.000160 (c=-0.01263400)
   36a -> 79a  :   0.000155 (c=-0.01246300)
   47a -> 75a  :   0.000132 (c=-0.01148600)
   58a -> 70a  :   0.000128 (c=-0.01132800)
   52a -> 85a  :   0.000127 (c=-0.01127300)
   52a -> 79a  :   0.000112 (c=-0.01057200)
   59a -> 103a  :   0.000109 (c=0.01042800)
   32a -> 87a  :   0.000107 (c=-0.01034600)
   55a -> 91a  :   0.000105 (c=-0.01025600)
   65a -> 107a  :   0.000101 (c=-0.01005600)

STATE  5:  E=   0.194990 au      5.306 eV    42795.5 cm**-1 <S**2> =   0.000000
   65a -> 68a  :   0.443712 (c=0.66611700)
   61a -> 66a  :   0.420528 (c=0.64848100)
   65a -> 67a  :   0.092539 (c=-0.30420200)
   64a -> 66a  :   0.016599 (c=-0.12883600)
   62a -> 71a  :   0.009805 (c=-0.09902000)
   58a -> 70a  :   0.006065 (c=-0.07788000)
   63a -> 70a  :   0.002338 (c=-0.04834800)
   62a -> 69a  :   0.001898 (c=-0.04356500)
   64a -> 73a  :   0.001726 (c=0.04155000)
   51a -> 66a  :   0.001672 (c=-0.04088500)
   57a -> 83a  :   0.000327 (c=0.01807600)
   51a -> 73a  :   0.000297 (c=0.01724000)

-----------------------------
TD-DFT/TDA-EXCITATION SPECTRA
-----------------------------

Center of mass = (  0.0000,  0.0000,  3.4488)
Calculating the Dipole integrals                  ... done
Transforming integrals                            ... done
Calculating the Linear Momentum integrals         ... done
Transforming integrals                            ... done
Calculating angular momentum integrals            ... done
Transforming integrals                            ... done
    
-----------------------------------------------------------------------------
         ABSORPTION SPECTRUM VIA TRANSITION ELECTRIC DIPOLE MOMENTS
-----------------------------------------------------------------------------
State   Energy    Wavelength  fosc         T2        TX        TY        TZ  
        (cm-1)      (nm)                 (au**2)    (au)      (au)      (au) 
-----------------------------------------------------------------------------
   1    29542.8    338.5   0.668600000   7.45072  -2.72960   -0.00000   0.00840
   2    34673.9    288.4   0.000000000   0.00000  -0.00000   -0.00010   -0.00000
   3    36754.7    272.1   0.003400000   0.03062  -0.00000   -0.17500   0.00000
   4    38485.3    259.8   0.000000000   0.00000  -0.00000   -0.00000   0.00000
   5    42795.5    233.7   0.000000000   0.00000  -0.00000   -0.00030   0.00010

-----------------------------------------------------------------------------
         ABSORPTION SPECTRUM VIA TRANSITION VELOCITY DIPOLE MOMENTS
-----------------------------------------------------------------------------
State   Energy    Wavelength   fosc        P2         PX        PY        PZ  
        (cm-1)      (nm)                 (au**2)     (au)      (au)      (au) 
-----------------------------------------------------------------------------
    1   29542.8    338.5   0.668600000   0.00011  0.01040   -0.00000   -0.00000
    2   34673.9    288.4   0.000000000   0.00000  0.00000   -0.00000   0.00000
    3   36754.7    272.1   0.003400000   0.00016  0.00000   -0.01280   0.00000
    4   38485.3    259.8   0.000000000   0.00000  -0.00000   -0.00000   0.00000
    5   42795.5    233.7   0.000000000   0.00000  0.00000   -0.00000   -0.00000

Total run time:      0.000 sec

           *** ORCA-CIS/TD-DFT FINISHED WITHOUT ERROR ***

Maximum memory used throughout the entire CIS-calculation: 1024.0 MB

-----------------------
CIS/TD-DFT TOTAL ENERGY
-----------------------

    E(SCF)  =      0.000000000 Eh
    DE(CIS) =      0.000000000 Eh (Root  1)
    ----------------------------- ---------
    E(tot)  =      0.000000000 Eh



-------------------------   ----------------
Dispersion correction           -0.000000000
-------------------------   ----------------


-------------------------   --------------------
FINAL SINGLE POINT ENERGY         0.000000000000
-------------------------   --------------------



                             ****ORCA TERMINATED NORMALLY****
TOTAL RUN TIME: 0 days 0 hours 0 minutes 0 seconds 0 msec
    