
    
                                 *****************
                                 * O   R   C   A *
                                 *****************

                                            #,                                       
                                            ###                                      
                                            ####                                     
                                            #####                                    
                                            ######                                   
                                           ########,                                 
                                     ,,################,,,,,                         
                               ,,#################################,,                 
                          ,,##########################################,,             
                       ,#########################################, ''#####,          
                    ,#############################################,,   '####,        
                  ,##################################################,,,,####,       
                ,###########''''           ''''###############################       
              ,#####''   ,,,,##########,,,,          '''####'''          '####       
            ,##' ,,,,###########################,,,                        '##       
           ' ,,###''''                  '''############,,,                           
         ,,##''                                '''############,,,,        ,,,,,,###''
      ,#''                                            '''#######################'''  
     '                                                          ''''####''''         
             ,#######,   #######,   ,#######,      ##                                
            ,#'     '#,  ##    ##  ,#'     '#,    #''#        ######   ,####,        
            ##       ##  ##   ,#'  ##            #'  '#       #        #'  '#        
            ##       ##  #######   ##           ,######,      #####,   #    #        
            '#,     ,#'  ##    ##  '#,     ,#' ,#      #,         ##   #,  ,#        
             '#######'   ##     ##  '#######'  #'      '#     #####' # '####'        

    
 
       ***********************************************************
       *                    TeraChem v1.9-2021.10-dev            *
       *                 Hg Version:                             *
       *                   Development Version                   *
       *           Chemistry at the Speed of Graphics!           *
       ***********************************************************
       *        The original data is generated by TeraChem       *
       *             Converted by read_excitation.py             *
       ***********************************************************

------------------------------------------------------------------------------
            THIS OUTPUT ONLY CONTAINS EXCITATION CI COEFFICIENTS
                        OTHER INFORMATION ARE INVALID
------------------------------------------------------------------------------
    

------------------------------------------------------------------------------
                        ORCA TD-DFT/TDA CALCULATION
------------------------------------------------------------------------------

Input orbitals are from        ... tetracene-orca.out.gbw
CI-vector output               ... tetracene-orca.out.cis
Tamm-Dancoff approximation     ... operative
CIS-Integral strategy          ... AO-integrals
Integral handling              ... AO integral Direct
Max. core memory used          ... 2048 MB
Reference state                ... RHF
Generation of triplets         ... off
Follow IRoot                   ... off
Number of operators            ... 1
Orbital ranges used for CIS calculation:
 Operator 0:  Orbitals  0...59  to 60...1631
XAS localization array:
 Operator 0:  Orbitals  -1... -1
    

     *** TD-DFT CALCULATION INITIALIZED ***

------------------------
DAVIDSON-DIAGONALIZATION
------------------------

Dimension of the eigenvalue problem            ... 131072
Number of roots to be determined               ...      5
Maximum size of the expansion space            ...     50
Maximum number of iterations                   ...    100
Convergence tolerance for the residual         ...    2.500e-07
Convergence tolerance for the energies         ...    2.500e-07
Orthogonality tolerance                        ...    1.000e-14
Level Shift                                    ...    0.000e+00
Constructing the preconditioner                ... o.k.
Building the initial guess                     ... o.k.
Number of trial vectors determined             ...     50


                       ****Iteration    0****

   Memory handling for direct AO based CIS:
   Memory per vector needed      ...   128 MB
   Memory needed                 ...  2048 MB
   Memory available              ...  2048 MB
   Number of vectors per batch   ...    16
   Number of batches             ...     2
   Time for densities:            0.000
   Time for RI-J (Direct):        0.000
   Time for K (COSX):             0.000
   Time for XC-Integration:       0.000
   Time for Sigma-Completion:     0.000
   Time for densities:            0.000
   Time for RI-J (Direct):        0.000
   Time for K (COSX):             0.000
   Time for XC-Integration:       0.000
   Time for Sigma-Completion:     0.000
   Size of expansion space: 15
   Lowest Energy          :     0.000000000000
   Maximum Energy change  :     0.000000000000 (vector 1)
   Maximum residual norm  :     0.000000000000


      *** CONVERGENCE OF RESIDUAL NORM REACHED ***

Storing the converged CI vectors               ... hello_world.cis

                 *** DAVIDSON DONE ***

Total time for solving the CIS problem:   702.861sec
    

------------------------------------
TD-DFT/TDA EXCITED STATES (SINGLETS)
------------------------------------

the weight of the individual excitations are printed if larger than 1.0e-02
STATE  1:  E=   0.124049 au      3.375 eV    27225.6 cm**-1 <S**2> =   0.000000
   59a -> 60a  :   0.929101 (c=0.96389900)
   58a -> 61a  :   0.039472 (c=0.19867600)
   54a -> 65a  :   0.005994 (c=-0.07742300)
   57a -> 62a  :   0.004061 (c=0.06372500)
   50a -> 61a  :   0.002589 (c=0.05088300)
   58a -> 69a  :   0.001997 (c=0.04468600)
   52a -> 89a  :   0.001130 (c=-0.03361700)
   57a -> 65a  :   0.000573 (c=0.02392900)
   55a -> 64a  :   0.000480 (c=-0.02190200)
   56a -> 63a  :   0.000451 (c=-0.02123300)
   54a -> 62a  :   0.000342 (c=0.01850500)
   56a -> 60a  :   0.000318 (c=-0.01782100)
   44a -> 93a  :   0.000312 (c=0.01767700)
   44a -> 95a  :   0.000296 (c=-0.01720300)
   53a -> 94a  :   0.000272 (c=0.01648400)
   48a -> 83a  :   0.000251 (c=-0.01585200)
   32a -> 72a  :   0.000238 (c=0.01543700)
   48a -> 90a  :   0.000227 (c=0.01505500)
   47a -> 64a  :   0.000218 (c=-0.01475400)
   46a -> 97a  :   0.000214 (c=-0.01464500)
   53a -> 87a  :   0.000211 (c=0.01452800)
   52a -> 91a  :   0.000203 (c=0.01426000)
   49a -> 87a  :   0.000196 (c=-0.01400000)
   29a -> 68a  :   0.000188 (c=-0.01372100)
   59a -> 63a  :   0.000186 (c=-0.01362800)
   35a -> 70a  :   0.000181 (c=-0.01345300)
   39a -> 79a  :   0.000169 (c=-0.01301100)
   44a -> 91a  :   0.000165 (c=0.01283900)
   33a -> 79a  :   0.000157 (c=-0.01253400)
   49a -> 94a  :   0.000150 (c=-0.01225900)
   52a -> 67a  :   0.000150 (c=-0.01224700)
   55a -> 78a  :   0.000147 (c=0.01211500)
   51a -> 86a  :   0.000145 (c=0.01203200)
   39a -> 76a  :   0.000139 (c=-0.01180100)
   40a -> 79a  :   0.000138 (c=0.01176500)
   43a -> 89a  :   0.000134 (c=0.01155800)
   43a -> 67a  :   0.000124 (c=0.01112300)
   53a -> 68a  :   0.000118 (c=-0.01085600)
   49a -> 79a  :   0.000118 (c=0.01085300)
   59a -> 111a  :   0.000118 (c=-0.01084400)
   41a -> 92a  :   0.000116 (c=-0.01076700)
   54a -> 98a  :   0.000115 (c=-0.01074300)
   37a -> 70a  :   0.000114 (c=-0.01066200)
   50a -> 69a  :   0.000113 (c=0.01064500)
   44a -> 89a  :   0.000109 (c=-0.01044300)
   45a -> 86a  :   0.000104 (c=-0.01020500)
   43a -> 88a  :   0.000100 (c=0.01002400)

STATE  2:  E=   0.144124 au      3.922 eV    31631.7 cm**-1 <S**2> =   0.000000
   58a -> 60a  :   0.506050 (c=0.71137200)
   59a -> 61a  :   0.436477 (c=-0.66066400)
   55a -> 62a  :   0.017329 (c=0.13164000)
   57a -> 64a  :   0.015771 (c=0.12558400)
   50a -> 60a  :   0.006539 (c=0.08086300)
   59a -> 69a  :   0.004395 (c=-0.06629500)
   50a -> 63a  :   0.002562 (c=-0.05061300)
   56a -> 69a  :   0.002509 (c=0.05009300)
   58a -> 63a  :   0.002108 (c=-0.04591800)
   56a -> 61a  :   0.002060 (c=0.04539000)
   47a -> 62a  :   0.000948 (c=0.03078900)
   54a -> 78a  :   0.000539 (c=0.02321600)
   57a -> 78a  :   0.000523 (c=-0.02287200)
   47a -> 65a  :   0.000414 (c=-0.02035900)
   55a -> 65a  :   0.000203 (c=-0.01424000)
   42a -> 63a  :   0.000179 (c=0.01337600)
   54a -> 64a  :   0.000176 (c=-0.01325100)

STATE  3:  E=   0.174476 au      4.748 eV    38293.0 cm**-1 <S**2> =   0.000000
   57a -> 60a  :   0.693671 (c=-0.83286900)
   59a -> 62a  :   0.253653 (c=-0.50364000)
   55a -> 61a  :   0.011737 (c=-0.10833900)
   58a -> 64a  :   0.008194 (c=0.09052100)
   56a -> 65a  :   0.005547 (c=0.07447800)
   56a -> 62a  :   0.004316 (c=-0.06569500)
   47a -> 61a  :   0.002509 (c=-0.05008700)
   54a -> 63a  :   0.001507 (c=0.03882100)
   58a -> 78a  :   0.001435 (c=-0.03788500)
   52a -> 90a  :   0.000659 (c=0.02567400)
   59a -> 65a  :   0.000576 (c=-0.02400800)
   52a -> 70a  :   0.000495 (c=0.02225000)
   48a -> 89a  :   0.000484 (c=-0.02200800)
   43a -> 83a  :   0.000397 (c=-0.01993100)
   44a -> 70a  :   0.000313 (c=0.01769600)
   45a -> 94a  :   0.000312 (c=-0.01765100)
   35a -> 89a  :   0.000258 (c=0.01606100)
   42a -> 64a  :   0.000242 (c=0.01554900)
   39a -> 86a  :   0.000238 (c=-0.01543200)
   48a -> 88a  :   0.000236 (c=0.01536800)
   31a -> 68a  :   0.000230 (c=0.01515200)
   41a -> 93a  :   0.000217 (c=0.01473800)
   51a -> 96a  :   0.000215 (c=-0.01466900)
   29a -> 71a  :   0.000215 (c=0.01465200)
   52a -> 99a  :   0.000211 (c=0.01453400)
   46a -> 87a  :   0.000181 (c=0.01346700)
   34a -> 84a  :   0.000180 (c=0.01343400)
   34a -> 68a  :   0.000177 (c=-0.01331000)
   45a -> 73a  :   0.000174 (c=-0.01320500)
   53a -> 101a  :   0.000164 (c=-0.01280700)
   55a -> 69a  :   0.000161 (c=-0.01268600)
   54a -> 60a  :   0.000159 (c=0.01262700)
   32a -> 70a  :   0.000156 (c=0.01247300)
   41a -> 88a  :   0.000155 (c=0.01246300)
   53a -> 86a  :   0.000153 (c=0.01237500)
   57a -> 63a  :   0.000138 (c=0.01175500)
   59a -> 104a  :   0.000135 (c=-0.01163600)
   35a -> 77a  :   0.000135 (c=0.01162400)
   31a -> 79a  :   0.000129 (c=-0.01137200)
   51a -> 84a  :   0.000129 (c=0.01134100)
   39a -> 82a  :   0.000127 (c=-0.01126400)
   25a -> 77a  :   0.000126 (c=0.01123500)
   34a -> 76a  :   0.000126 (c=0.01122200)
   38a -> 74a  :   0.000123 (c=-0.01111300)
   56a -> 98a  :   0.000120 (c=0.01093300)
   40a -> 97a  :   0.000119 (c=-0.01089600)
   55a -> 81a  :   0.000117 (c=-0.01080500)
   37a -> 91a  :   0.000112 (c=-0.01059500)
   52a -> 85a  :   0.000110 (c=-0.01048200)
   44a -> 83a  :   0.000109 (c=0.01042400)
   43a -> 92a  :   0.000109 (c=-0.01042200)
   44a -> 92a  :   0.000109 (c=-0.01041700)
   51a -> 94a  :   0.000105 (c=0.01026700)
   45a -> 102a  :   0.000104 (c=0.01017600)
   48a -> 123a  :   0.000101 (c=0.01004600)
   35a -> 67a  :   0.000101 (c=0.01003700)

STATE  4:  E=   0.186183 au      5.066 eV    40862.5 cm**-1 <S**2> =   0.000000
   59a -> 62a  :   0.673984 (c=-0.82096500)
   57a -> 60a  :   0.240380 (c=0.49028600)
   57a -> 63a  :   0.033520 (c=-0.18308600)
   56a -> 62a  :   0.026708 (c=0.16342500)
   54a -> 63a  :   0.006952 (c=0.08337800)
   59a -> 65a  :   0.004579 (c=0.06766500)
   54a -> 60a  :   0.003741 (c=-0.06116600)
   56a -> 65a  :   0.003736 (c=-0.06112200)
   58a -> 64a  :   0.003021 (c=0.05496500)
   50a -> 64a  :   0.000499 (c=0.02234000)
   55a -> 69a  :   0.000451 (c=0.02124400)
   55a -> 61a  :   0.000243 (c=-0.01557400)
   47a -> 61a  :   0.000218 (c=-0.01476200)
   50a -> 78a  :   0.000196 (c=-0.01400200)
   47a -> 69a  :   0.000176 (c=0.01326700)

STATE  5:  E=   0.202198 au      5.502 eV    44377.2 cm**-1 <S**2> =   0.000000
   59a -> 61a  :   0.507454 (c=-0.71235800)
   58a -> 60a  :   0.430455 (c=-0.65609100)
   57a -> 64a  :   0.009932 (c=0.09965800)
   55a -> 62a  :   0.009518 (c=-0.09755900)
   50a -> 60a  :   0.003934 (c=-0.06272100)
   59a -> 69a  :   0.002344 (c=-0.04841500)
   46a -> 83a  :   0.002017 (c=0.04491500)
   47a -> 62a  :   0.001744 (c=-0.04175700)
   52a -> 84a  :   0.001453 (c=0.03811500)
   52a -> 87a  :   0.001326 (c=0.03641000)
   42a -> 63a  :   0.001252 (c=-0.03538800)
   51a -> 70a  :   0.001081 (c=-0.03288400)
   36a -> 66a  :   0.001069 (c=0.03269800)
   44a -> 76a  :   0.001004 (c=0.03169300)
   57a -> 78a  :   0.000969 (c=-0.03112300)
   53a -> 89a  :   0.000946 (c=0.03076200)
   49a -> 72a  :   0.000937 (c=-0.03060900)
   43a -> 73a  :   0.000893 (c=-0.02987500)
   56a -> 81a  :   0.000801 (c=-0.02829700)
   41a -> 71a  :   0.000800 (c=-0.02828700)
   45a -> 83a  :   0.000643 (c=0.02535300)
   33a -> 67a  :   0.000618 (c=-0.02485500)
   35a -> 75a  :   0.000557 (c=0.02359800)
   40a -> 67a  :   0.000540 (c=-0.02323200)
   38a -> 79a  :   0.000506 (c=-0.02248900)
   45a -> 70a  :   0.000501 (c=0.02238200)
   51a -> 74a  :   0.000448 (c=-0.02115500)
   49a -> 77a  :   0.000432 (c=-0.02078600)
   48a -> 75a  :   0.000418 (c=0.02043300)
   43a -> 79a  :   0.000390 (c=0.01974200)
   49a -> 91a  :   0.000384 (c=0.01959300)
   45a -> 74a  :   0.000377 (c=-0.01941700)
   51a -> 90a  :   0.000361 (c=-0.01899500)
   38a -> 68a  :   0.000349 (c=0.01869000)
   43a -> 68a  :   0.000345 (c=0.01858400)
   52a -> 68a  :   0.000344 (c=-0.01853700)
   53a -> 88a  :   0.000335 (c=0.01829300)
   32a -> 76a  :   0.000318 (c=0.01783400)
   46a -> 74a  :   0.000295 (c=0.01718300)
   47a -> 65a  :   0.000285 (c=-0.01688300)
   37a -> 71a  :   0.000278 (c=-0.01667700)
   41a -> 82a  :   0.000275 (c=0.01658100)
   45a -> 85a  :   0.000271 (c=0.01646300)
   48a -> 97a  :   0.000257 (c=0.01603000)
   51a -> 66a  :   0.000229 (c=-0.01513800)
   40a -> 88a  :   0.000228 (c=-0.01510800)
   58a -> 111a  :   0.000220 (c=-0.01482800)
   48a -> 86a  :   0.000217 (c=0.01472700)
   40a -> 93a  :   0.000212 (c=0.01457000)
   45a -> 92a  :   0.000211 (c=-0.01454100)
   56a -> 69a  :   0.000207 (c=0.01438600)
   49a -> 67a  :   0.000207 (c=-0.01438400)
   38a -> 87a  :   0.000195 (c=0.01395400)
   58a -> 63a  :   0.000185 (c=-0.01360300)
   40a -> 77a  :   0.000184 (c=0.01355200)
   34a -> 66a  :   0.000167 (c=0.01290500)
   46a -> 92a  :   0.000158 (c=-0.01255500)
   51a -> 92a  :   0.000157 (c=-0.01252200)
   53a -> 91a  :   0.000150 (c=-0.01223700)
   50a -> 63a  :   0.000147 (c=0.01211200)
   36a -> 70a  :   0.000142 (c=-0.01191000)
   39a -> 95a  :   0.000140 (c=0.01184400)
   44a -> 68a  :   0.000139 (c=-0.01178700)
   55a -> 104a  :   0.000135 (c=0.01162400)
   28a -> 75a  :   0.000131 (c=-0.01144800)
   37a -> 86a  :   0.000131 (c=-0.01142800)
   54a -> 78a  :   0.000130 (c=-0.01138600)
   44a -> 84a  :   0.000130 (c=0.01138100)
   52a -> 94a  :   0.000121 (c=-0.01100700)
   59a -> 118a  :   0.000112 (c=-0.01059900)
   48a -> 82a  :   0.000108 (c=0.01037300)
   33a -> 72a  :   0.000107 (c=0.01033800)
   46a -> 70a  :   0.000106 (c=-0.01030900)
   48a -> 80a  :   0.000104 (c=-0.01019300)
   50a -> 100a  :   0.000103 (c=0.01016100)
   41a -> 80a  :   0.000101 (c=0.01006800)

-----------------------------
TD-DFT/TDA-EXCITATION SPECTRA
-----------------------------

Center of mass = (  0.0000,  0.0000,  3.4488)
Calculating the Dipole integrals                  ... done
Transforming integrals                            ... done
Calculating the Linear Momentum integrals         ... done
Transforming integrals                            ... done
Calculating angular momentum integrals            ... done
Transforming integrals                            ... done
    
-----------------------------------------------------------------------------
         ABSORPTION SPECTRUM VIA TRANSITION ELECTRIC DIPOLE MOMENTS
-----------------------------------------------------------------------------
State   Energy    Wavelength  fosc         T2        TX        TY        TZ  
        (cm-1)      (nm)                 (au**2)    (au)      (au)      (au) 
-----------------------------------------------------------------------------
   1    27225.6    367.3   0.155800000   1.88348  -0.00000   1.37240   -0.00000
   2    31631.7    316.1   0.005300000   0.05522  -0.23500   0.00010   -0.00000
   3    38293.0    261.1   0.000000000   0.00000  0.00000   0.00000   -0.00000
   4    40862.5    244.7   0.000000000   0.00000  -0.00000   0.00010   0.00000
   5    44377.2    225.3   4.202100000   31.17324  5.58330   0.00000   0.00000

-----------------------------------------------------------------------------
         ABSORPTION SPECTRUM VIA TRANSITION VELOCITY DIPOLE MOMENTS
-----------------------------------------------------------------------------
State   Energy    Wavelength   fosc        P2         PX        PY        PZ  
        (cm-1)      (nm)                 (au**2)     (au)      (au)      (au) 
-----------------------------------------------------------------------------
    1   27225.6    367.3   0.155800000   0.04211  0.00000   0.20520   -0.00000
    2   31631.7    316.1   0.005300000   0.00002  -0.00410   0.00000   -0.00000
    3   38293.0    261.1   0.000000000   0.00000  -0.00000   0.00000   -0.00000
    4   40862.5    244.7   0.000000000   0.00000  0.00000   0.00000   -0.00000
    5   44377.2    225.3   4.202100000   0.25644  -0.50640   0.00000   -0.00000

Total run time:      0.000 sec

           *** ORCA-CIS/TD-DFT FINISHED WITHOUT ERROR ***

Maximum memory used throughout the entire CIS-calculation: 1024.0 MB

-----------------------
CIS/TD-DFT TOTAL ENERGY
-----------------------

    E(SCF)  =      0.000000000 Eh
    DE(CIS) =      0.000000000 Eh (Root  1)
    ----------------------------- ---------
    E(tot)  =      0.000000000 Eh



-------------------------   ----------------
Dispersion correction           -0.000000000
-------------------------   ----------------


-------------------------   --------------------
FINAL SINGLE POINT ENERGY         0.000000000000
-------------------------   --------------------



                             ****ORCA TERMINATED NORMALLY****
TOTAL RUN TIME: 0 days 0 hours 0 minutes 0 seconds 0 msec
    