[Molden Format]
[Title]
Written by molden_convert.py. The label 'orca' is added to let multiwfn can correctly read it
[Atoms] AU
C     1     6             0.000019        1.360111        0.000019
C     2     6             0.000019       -1.360093        0.000019
C     3     6            -4.613917        1.363078       -0.000019
C     4     6            -4.613936       -1.363059       -0.000019
C     5     6             4.614049        1.363078        0.000038
C     6     6             4.614030       -1.363097        0.000038
C     7     6             2.332035        2.647714        0.000019
C     8     6             2.332035       -2.647714        0.000038
C     9     6            -2.331960        2.647771       -0.000000
C     10    6            -2.331979       -2.647752        0.000000
C     11    6            -7.003344        2.659600       -0.000038
C     12    6            -7.003381       -2.659563       -0.000038
C     13    6             7.003362        2.659808        0.000057
C     14    6             7.003325       -2.659827        0.000057
C     15    6            -9.213869        1.355425       -0.000057
C     16    6            -9.213983       -1.355538       -0.000038
C     17    6             9.213813        1.355538        0.000076
C     18    6             9.213680       -1.355406        0.000076
H     19    1             2.330788        4.704737        0.000019
H     20    1             2.330769       -4.704737        0.000038
H     21    1            -2.330731        4.704813       -0.000019
H     22    1            -2.330750       -4.704794        0.000000
H     23    1            -6.996729        4.714809       -0.000038
H     24    1            -6.996710       -4.714772       -0.000019
H     25    1             6.996729        4.715036        0.000057
H     26    1             6.996748       -4.715055        0.000076
H     27    1           -11.007843        2.354069       -0.000057
H     28    1           -11.007976       -2.354164       -0.000057
H     29    1            11.007824        2.354088        0.000076
H     30    1            11.007691       -2.353975        0.000094
[GTO]
    1 0
 s   6 1.00
             3047.5249023               0.5363340
              457.3695068               0.9894510
              103.9486923               1.5972821
               29.2101555               2.0791869
                9.2866631               1.7741740
                3.1639271               0.6125800
 s   3 1.00
                7.8682718              -0.3995560
                1.8812881              -0.1841550
                0.5442490               0.5163900
 s   1 1.00
                0.1687140               0.1876180
 p   3 1.00
                7.8682718               1.2960830
                1.8812881               0.9937540
                0.5442490               0.4959530
 p   1 1.00
                0.1687140               0.1541280
 d   1 1.00
                0.8000000               1.9292010

    2 0
 s   6 1.00
             3047.5249023               0.5363340
              457.3695068               0.9894510
              103.9486923               1.5972821
               29.2101555               2.0791869
                9.2866631               1.7741740
                3.1639271               0.6125800
 s   3 1.00
                7.8682718              -0.3995560
                1.8812881              -0.1841550
                0.5442490               0.5163900
 s   1 1.00
                0.1687140               0.1876180
 p   3 1.00
                7.8682718               1.2960830
                1.8812881               0.9937540
                0.5442490               0.4959530
 p   1 1.00
                0.1687140               0.1541280
 d   1 1.00
                0.8000000               1.9292010

    3 0
 s   6 1.00
             3047.5249023               0.5363340
              457.3695068               0.9894510
              103.9486923               1.5972821
               29.2101555               2.0791869
                9.2866631               1.7741740
                3.1639271               0.6125800
 s   3 1.00
                7.8682718              -0.3995560
                1.8812881              -0.1841550
                0.5442490               0.5163900
 s   1 1.00
                0.1687140               0.1876180
 p   3 1.00
                7.8682718               1.2960830
                1.8812881               0.9937540
                0.5442490               0.4959530
 p   1 1.00
                0.1687140               0.1541280
 d   1 1.00
                0.8000000               1.9292010

    4 0
 s   6 1.00
             3047.5249023               0.5363340
              457.3695068               0.9894510
              103.9486923               1.5972821
               29.2101555               2.0791869
                9.2866631               1.7741740
                3.1639271               0.6125800
 s   3 1.00
                7.8682718              -0.3995560
                1.8812881              -0.1841550
                0.5442490               0.5163900
 s   1 1.00
                0.1687140               0.1876180
 p   3 1.00
                7.8682718               1.2960830
                1.8812881               0.9937540
                0.5442490               0.4959530
 p   1 1.00
                0.1687140               0.1541280
 d   1 1.00
                0.8000000               1.9292010

    5 0
 s   6 1.00
             3047.5249023               0.5363340
              457.3695068               0.9894510
              103.9486923               1.5972821
               29.2101555               2.0791869
                9.2866631               1.7741740
                3.1639271               0.6125800
 s   3 1.00
                7.8682718              -0.3995560
                1.8812881              -0.1841550
                0.5442490               0.5163900
 s   1 1.00
                0.1687140               0.1876180
 p   3 1.00
                7.8682718               1.2960830
                1.8812881               0.9937540
                0.5442490               0.4959530
 p   1 1.00
                0.1687140               0.1541280
 d   1 1.00
                0.8000000               1.9292010

    6 0
 s   6 1.00
             3047.5249023               0.5363340
              457.3695068               0.9894510
              103.9486923               1.5972821
               29.2101555               2.0791869
                9.2866631               1.7741740
                3.1639271               0.6125800
 s   3 1.00
                7.8682718              -0.3995560
                1.8812881              -0.1841550
                0.5442490               0.5163900
 s   1 1.00
                0.1687140               0.1876180
 p   3 1.00
                7.8682718               1.2960830
                1.8812881               0.9937540
                0.5442490               0.4959530
 p   1 1.00
                0.1687140               0.1541280
 d   1 1.00
                0.8000000               1.9292010

    7 0
 s   6 1.00
             3047.5249023               0.5363340
              457.3695068               0.9894510
              103.9486923               1.5972821
               29.2101555               2.0791869
                9.2866631               1.7741740
                3.1639271               0.6125800
 s   3 1.00
                7.8682718              -0.3995560
                1.8812881              -0.1841550
                0.5442490               0.5163900
 s   1 1.00
                0.1687140               0.1876180
 p   3 1.00
                7.8682718               1.2960830
                1.8812881               0.9937540
                0.5442490               0.4959530
 p   1 1.00
                0.1687140               0.1541280
 d   1 1.00
                0.8000000               1.9292010

    8 0
 s   6 1.00
             3047.5249023               0.5363340
              457.3695068               0.9894510
              103.9486923               1.5972821
               29.2101555               2.0791869
                9.2866631               1.7741740
                3.1639271               0.6125800
 s   3 1.00
                7.8682718              -0.3995560
                1.8812881              -0.1841550
                0.5442490               0.5163900
 s   1 1.00
                0.1687140               0.1876180
 p   3 1.00
                7.8682718               1.2960830
                1.8812881               0.9937540
                0.5442490               0.4959530
 p   1 1.00
                0.1687140               0.1541280
 d   1 1.00
                0.8000000               1.9292010

    9 0
 s   6 1.00
             3047.5249023               0.5363340
              457.3695068               0.9894510
              103.9486923               1.5972821
               29.2101555               2.0791869
                9.2866631               1.7741740
                3.1639271               0.6125800
 s   3 1.00
                7.8682718              -0.3995560
                1.8812881              -0.1841550
                0.5442490               0.5163900
 s   1 1.00
                0.1687140               0.1876180
 p   3 1.00
                7.8682718               1.2960830
                1.8812881               0.9937540
                0.5442490               0.4959530
 p   1 1.00
                0.1687140               0.1541280
 d   1 1.00
                0.8000000               1.9292010

    10 0
 s   6 1.00
             3047.5249023               0.5363340
              457.3695068               0.9894510
              103.9486923               1.5972821
               29.2101555               2.0791869
                9.2866631               1.7741740
                3.1639271               0.6125800
 s   3 1.00
                7.8682718              -0.3995560
                1.8812881              -0.1841550
                0.5442490               0.5163900
 s   1 1.00
                0.1687140               0.1876180
 p   3 1.00
                7.8682718               1.2960830
                1.8812881               0.9937540
                0.5442490               0.4959530
 p   1 1.00
                0.1687140               0.1541280
 d   1 1.00
                0.8000000               1.9292010

    11 0
 s   6 1.00
             3047.5249023               0.5363340
              457.3695068               0.9894510
              103.9486923               1.5972821
               29.2101555               2.0791869
                9.2866631               1.7741740
                3.1639271               0.6125800
 s   3 1.00
                7.8682718              -0.3995560
                1.8812881              -0.1841550
                0.5442490               0.5163900
 s   1 1.00
                0.1687140               0.1876180
 p   3 1.00
                7.8682718               1.2960830
                1.8812881               0.9937540
                0.5442490               0.4959530
 p   1 1.00
                0.1687140               0.1541280
 d   1 1.00
                0.8000000               1.9292010

    12 0
 s   6 1.00
             3047.5249023               0.5363340
              457.3695068               0.9894510
              103.9486923               1.5972821
               29.2101555               2.0791869
                9.2866631               1.7741740
                3.1639271               0.6125800
 s   3 1.00
                7.8682718              -0.3995560
                1.8812881              -0.1841550
                0.5442490               0.5163900
 s   1 1.00
                0.1687140               0.1876180
 p   3 1.00
                7.8682718               1.2960830
                1.8812881               0.9937540
                0.5442490               0.4959530
 p   1 1.00
                0.1687140               0.1541280
 d   1 1.00
                0.8000000               1.9292010

    13 0
 s   6 1.00
             3047.5249023               0.5363340
              457.3695068               0.9894510
              103.9486923               1.5972821
               29.2101555               2.0791869
                9.2866631               1.7741740
                3.1639271               0.6125800
 s   3 1.00
                7.8682718              -0.3995560
                1.8812881              -0.1841550
                0.5442490               0.5163900
 s   1 1.00
                0.1687140               0.1876180
 p   3 1.00
                7.8682718               1.2960830
                1.8812881               0.9937540
                0.5442490               0.4959530
 p   1 1.00
                0.1687140               0.1541280
 d   1 1.00
                0.8000000               1.9292010

    14 0
 s   6 1.00
             3047.5249023               0.5363340
              457.3695068               0.9894510
              103.9486923               1.5972821
               29.2101555               2.0791869
                9.2866631               1.7741740
                3.1639271               0.6125800
 s   3 1.00
                7.8682718              -0.3995560
                1.8812881              -0.1841550
                0.5442490               0.5163900
 s   1 1.00
                0.1687140               0.1876180
 p   3 1.00
                7.8682718               1.2960830
                1.8812881               0.9937540
                0.5442490               0.4959530
 p   1 1.00
                0.1687140               0.1541280
 d   1 1.00
                0.8000000               1.9292010

    15 0
 s   6 1.00
             3047.5249023               0.5363340
              457.3695068               0.9894510
              103.9486923               1.5972821
               29.2101555               2.0791869
                9.2866631               1.7741740
                3.1639271               0.6125800
 s   3 1.00
                7.8682718              -0.3995560
                1.8812881              -0.1841550
                0.5442490               0.5163900
 s   1 1.00
                0.1687140               0.1876180
 p   3 1.00
                7.8682718               1.2960830
                1.8812881               0.9937540
                0.5442490               0.4959530
 p   1 1.00
                0.1687140               0.1541280
 d   1 1.00
                0.8000000               1.9292010

    16 0
 s   6 1.00
             3047.5249023               0.5363340
              457.3695068               0.9894510
              103.9486923               1.5972821
               29.2101555               2.0791869
                9.2866631               1.7741740
                3.1639271               0.6125800
 s   3 1.00
                7.8682718              -0.3995560
                1.8812881              -0.1841550
                0.5442490               0.5163900
 s   1 1.00
                0.1687140               0.1876180
 p   3 1.00
                7.8682718               1.2960830
                1.8812881               0.9937540
                0.5442490               0.4959530
 p   1 1.00
                0.1687140               0.1541280
 d   1 1.00
                0.8000000               1.9292010

    17 0
 s   6 1.00
             3047.5249023               0.5363340
              457.3695068               0.9894510
              103.9486923               1.5972821
               29.2101555               2.0791869
                9.2866631               1.7741740
                3.1639271               0.6125800
 s   3 1.00
                7.8682718              -0.3995560
                1.8812881              -0.1841550
                0.5442490               0.5163900
 s   1 1.00
                0.1687140               0.1876180
 p   3 1.00
                7.8682718               1.2960830
                1.8812881               0.9937540
                0.5442490               0.4959530
 p   1 1.00
                0.1687140               0.1541280
 d   1 1.00
                0.8000000               1.9292010

    18 0
 s   6 1.00
             3047.5249023               0.5363340
              457.3695068               0.9894510
              103.9486923               1.5972821
               29.2101555               2.0791869
                9.2866631               1.7741740
                3.1639271               0.6125800
 s   3 1.00
                7.8682718              -0.3995560
                1.8812881              -0.1841550
                0.5442490               0.5163900
 s   1 1.00
                0.1687140               0.1876180
 p   3 1.00
                7.8682718               1.2960830
                1.8812881               0.9937540
                0.5442490               0.4959530
 p   1 1.00
                0.1687140               0.1541280
 d   1 1.00
                0.8000000               1.9292010

    19 0
 s   3 1.00
               18.7311363               0.2149350
                2.8253939               0.3645710
                0.6401220               0.4150510
 s   1 1.00
                0.1612780               0.1813810

    20 0
 s   3 1.00
               18.7311363               0.2149350
                2.8253939               0.3645710
                0.6401220               0.4150510
 s   1 1.00
                0.1612780               0.1813810

    21 0
 s   3 1.00
               18.7311363               0.2149350
                2.8253939               0.3645710
                0.6401220               0.4150510
 s   1 1.00
                0.1612780               0.1813810

    22 0
 s   3 1.00
               18.7311363               0.2149350
                2.8253939               0.3645710
                0.6401220               0.4150510
 s   1 1.00
                0.1612780               0.1813810

    23 0
 s   3 1.00
               18.7311363               0.2149350
                2.8253939               0.3645710
                0.6401220               0.4150510
 s   1 1.00
                0.1612780               0.1813810

    24 0
 s   3 1.00
               18.7311363               0.2149350
                2.8253939               0.3645710
                0.6401220               0.4150510
 s   1 1.00
                0.1612780               0.1813810

    25 0
 s   3 1.00
               18.7311363               0.2149350
                2.8253939               0.3645710
                0.6401220               0.4150510
 s   1 1.00
                0.1612780               0.1813810

    26 0
 s   3 1.00
               18.7311363               0.2149350
                2.8253939               0.3645710
                0.6401220               0.4150510
 s   1 1.00
                0.1612780               0.1813810

    27 0
 s   3 1.00
               18.7311363               0.2149350
                2.8253939               0.3645710
                0.6401220               0.4150510
 s   1 1.00
                0.1612780               0.1813810

    28 0
 s   3 1.00
               18.7311363               0.2149350
                2.8253939               0.3645710
                0.6401220               0.4150510
 s   1 1.00
                0.1612780               0.1813810

    29 0
 s   3 1.00
               18.7311363               0.2149350
                2.8253939               0.3645710
                0.6401220               0.4150510
 s   1 1.00
                0.1612780               0.1813810

    30 0
 s   3 1.00
               18.7311363               0.2149350
                2.8253939               0.3645710
                0.6401220               0.4150510
 s   1 1.00
                0.1612780               0.1813810


[MO]
Ene= -10.2993  
Spin= Alpha
Occup= 2.0000    
     1      0.70266002
     2      0.02387000
     3     -0.01446000
     4      0.00000000
     5      0.00066000
     6      0.00000000
     7      0.00000000
     8     -0.00177000
     9      0.00000000
    10     -0.00006000
    11      0.00000000
    12      0.00000000
    13      0.00081984
    14      0.00000000
    15      0.70378000
    16      0.02392000
    17     -0.01451000
    18      0.00000000
    19     -0.00066000
    20      0.00000000
    21      0.00000000
    22      0.00176000
    23      0.00000000
    24     -0.00006000
    25      0.00000000
    26      0.00000000
    27      0.00081984
    28      0.00000000
    29     -0.01173000
    30     -0.00064000
    31     -0.00082000
    32     -0.00023000
    33      0.00007000
    34      0.00000000
    35      0.00086000
    36     -0.00059000
    37      0.00000000
    38     -0.00004000
    39      0.00000000
    40      0.00000000
    41     -0.00009238
    42      0.00002000
    43     -0.01181000
    44     -0.00064000
    45     -0.00082000
    46     -0.00023000
    47     -0.00007000
    48      0.00000000
    49      0.00085000
    50      0.00059000
    51      0.00000000
    52     -0.00004000
    53      0.00000000
    54      0.00000000
    55     -0.00009238
    56     -0.00002000
    57     -0.01195000
    58     -0.00064000
    59     -0.00081000
    60      0.00023000
    61      0.00007000
    62      0.00000000
    63     -0.00086000
    64     -0.00059000
    65      0.00000000
    66     -0.00004000
    67      0.00000000
    68      0.00000000
    69     -0.00009238
    70     -0.00002000
    71     -0.01190000
    72     -0.00064000
    73     -0.00082000
    74      0.00023000
    75     -0.00007000
    76      0.00000000
    77     -0.00085000
    78      0.00059000
    79      0.00000000
    80     -0.00004000
    81      0.00000000
    82      0.00000000
    83     -0.00009238
    84      0.00002000
    85      0.01493000
    86     -0.00072000
    87      0.00429000
    88      0.00082000
    89      0.00048000
    90      0.00000000
    91     -0.00175000
    92     -0.00069000
    93      0.00000000
    94      0.00038667
    95      0.00000000
    96      0.00000000
    97     -0.00034641
    98     -0.00068000
    99      0.01496000
   100     -0.00072000
   101      0.00430000
   102      0.00082000
   103     -0.00048000
   104      0.00000000
   105     -0.00175000
   106      0.00069000
   107      0.00000000
   108      0.00038667
   109      0.00000000
   110      0.00000000
   111     -0.00034641
   112      0.00068000
   113      0.01494000
   114     -0.00072000
   115      0.00429000
   116     -0.00082000
   117      0.00048000
   118      0.00000000
   119      0.00175000
   120     -0.00069000
   121      0.00000000
   122      0.00038667
   123      0.00000000
   124      0.00000000
   125     -0.00034641
   126      0.00068000
   127      0.01497000
   128     -0.00072000
   129      0.00430000
   130     -0.00082000
   131     -0.00048000
   132      0.00000000
   133      0.00175000
   134      0.00069000
   135      0.00000000
   136      0.00038667
   137      0.00000000
   138      0.00000000
   139     -0.00034641
   140     -0.00068000
   141     -0.00022000
   142     -0.00011000
   143      0.00104000
   144      0.00003000
   145     -0.00001000
   146      0.00000000
   147      0.00083000
   148     -0.00036000
   149      0.00000000
   150     -0.00004333
   151      0.00000000
   152      0.00000000
   153      0.00001732
   154     -0.00004000
   155     -0.00022000
   156     -0.00011000
   157      0.00103000
   158      0.00003000
   159      0.00001000
   160      0.00000000
   161      0.00083000
   162      0.00035000
   163      0.00000000
   164     -0.00004333
   165      0.00000000
   166      0.00000000
   167      0.00001732
   168      0.00004000
   169     -0.00022000
   170     -0.00011000
   171      0.00104000
   172     -0.00003000
   173     -0.00001000
   174      0.00000000
   175     -0.00083000
   176     -0.00035000
   177      0.00000000
   178     -0.00004333
   179      0.00000000
   180      0.00000000
   181      0.00001732
   182      0.00004000
   183     -0.00022000
   184     -0.00011000
   185      0.00103000
   186     -0.00003000
   187      0.00001000
   188      0.00000000
   189     -0.00083000
   190      0.00035000
   191      0.00000000
   192     -0.00004333
   193      0.00000000
   194      0.00000000
   195      0.00001732
   196     -0.00004000
   197      0.00001000
   198      0.00000000
   199      0.00026000
   200      0.00000000
   201     -0.00002000
   202      0.00000000
   203     -0.00004000
   204      0.00023000
   205      0.00000000
   206     -0.00001000
   207      0.00000000
   208      0.00000000
   209     -0.00000577
   210      0.00000000
   211      0.00001000
   212      0.00000000
   213      0.00027000
   214      0.00000000
   215      0.00002000
   216      0.00000000
   217     -0.00004000
   218     -0.00023000
   219      0.00000000
   220     -0.00001000
   221      0.00000000
   222      0.00000000
   223     -0.00000577
   224      0.00000000
   225      0.00001000
   226      0.00000000
   227      0.00027000
   228      0.00000000
   229     -0.00002000
   230      0.00000000
   231      0.00004000
   232      0.00023000
   233      0.00000000
   234     -0.00000333
   235      0.00000000
   236      0.00000000
   237     -0.00000577
   238      0.00000000
   239      0.00001000
   240      0.00000000
   241      0.00027000
   242      0.00000000
   243      0.00002000
   244      0.00000000
   245      0.00004000
   246     -0.00023000
   247      0.00000000
   248     -0.00001000
   249      0.00000000
   250      0.00000000
   251     -0.00000577
   252      0.00000000
   253     -0.00020000
   254     -0.00006000
   255     -0.00020000
   256     -0.00006000
   257     -0.00020000
   258     -0.00006000
   259     -0.00020000
   260     -0.00006000
   261     -0.00003000
   262      0.00013000
   263     -0.00003000
   264      0.00012000
   265     -0.00003000
   266      0.00012000
   267     -0.00003000
   268      0.00012000
   269     -0.00003000
   270     -0.00005000
   271     -0.00003000
   272     -0.00005000
   273     -0.00003000
   274     -0.00005000
   275     -0.00003000
   276     -0.00005000
Ene= -10.2990  
Spin= Alpha
Occup= 2.0000    
     1      0.01221000
     2      0.00021000
     3     -0.00166000
     4     -0.00023000
     5      0.00008000
     6      0.00000000
     7      0.00095000
     8     -0.00074000
     9      0.00000000
    10     -0.00003000
    11      0.00000000
    12      0.00000000
    13     -0.00006351
    14      0.00002000
    15      0.01044000
    16      0.00014000
    17     -0.00157000
    18     -0.00023000
    19     -0.00009000
    20      0.00000000
    21      0.00096000
    22      0.00076000
    23      0.00000000
    24     -0.00002667
    25      0.00000000
    26      0.00000000
    27     -0.00005774
    28     -0.00002000
    29     -0.00987000
    30     -0.00034000
    31      0.00034000
    32      0.00000000
    33     -0.00002000
    34      0.00000000
    35     -0.00010000
    36      0.00017000
    37      0.00000000
    38     -0.00000000
    39      0.00000000
    40      0.00000000
    41     -0.00002309
    42      0.00000000
    43     -0.01012000
    44     -0.00035000
    45      0.00035000
    46      0.00000000
    47      0.00002000
    48      0.00000000
    49     -0.00010000
    50     -0.00017000
    51      0.00000000
    52     -0.00000000
    53      0.00000000
    54      0.00000000
    55     -0.00002309
    56      0.00000000
    57      0.70472002
    58      0.02390000
    59     -0.01466000
    60     -0.00009000
    61      0.00065000
    62      0.00000000
    63      0.00023000
    64     -0.00181000
    65      0.00000000
    66     -0.00006000
    67      0.00000000
    68      0.00000000
    69      0.00080829
    70     -0.00008000
    71      0.70165998
    72      0.02379000
    73     -0.01452000
    74     -0.00009000
    75     -0.00066000
    76      0.00000000
    77      0.00022000
    78      0.00184000
    79      0.00000000
    80     -0.00006000
    81      0.00000000
    82      0.00000000
    83      0.00080829
    84      0.00008000
    85      0.02014000
    86     -0.00071000
    87      0.00483000
    88     -0.00086000
    89      0.00055000
    90      0.00000000
    91      0.00179000
    92     -0.00083000
    93      0.00000000
    94      0.00039667
    95      0.00000000
    96      0.00000000
    97     -0.00034064
    98      0.00065000
    99      0.02001000
   100     -0.00071000
   101      0.00477000
   102     -0.00086000
   103     -0.00055000
   104      0.00000000
   105      0.00179000
   106      0.00081000
   107      0.00000000
   108      0.00039333
   109      0.00000000
   110      0.00000000
   111     -0.00033486
   112     -0.00065000
   113     -0.00007000
   114     -0.00014000
   115      0.00146000
   116     -0.00002000
   117     -0.00001000
   118      0.00000000
   119      0.00105000
   120     -0.00047000
   121      0.00000000
   122     -0.00004000
   123      0.00000000
   124      0.00000000
   125      0.00002309
   126     -0.00002000
   127     -0.00011000
   128     -0.00014000
   129      0.00145000
   130     -0.00002000
   131      0.00001000
   132      0.00000000
   133      0.00104000
   134      0.00046000
   135      0.00000000
   136     -0.00004000
   137      0.00000000
   138      0.00000000
   139      0.00002309
   140      0.00002000
   141     -0.00018000
   142      0.00000000
   143     -0.00028000
   144     -0.00001000
   145     -0.00001000
   146      0.00000000
   147      0.00018000
   148      0.00016000
   149      0.00000000
   150     -0.00001000
   151      0.00000000
   152      0.00000000
   153      0.00000577
   154     -0.00002000
   155     -0.00018000
   156      0.00000000
   157     -0.00028000
   158     -0.00001000