[Molden Format]
[Title]
Written by TeraChem
[Atoms] Angs
C   1   6      0.00001    0.71974    0.00001
C   2   6      0.00001   -0.71973    0.00001
C   3   6     -2.44158    0.72131   -0.00001
C   4   6     -2.44159   -0.72130   -0.00001
C   5   6      2.44165    0.72131    0.00002
C   6   6      2.44164   -0.72132    0.00002
C   7   6      1.23406    1.40111    0.00001
C   8   6      1.23406   -1.40111    0.00002
C   9   6     -1.23402    1.40114   -0.00000
C   10   6     -1.23403   -1.40113    0.00000
C   11   6     -3.70601    1.40740   -0.00002
C   12   6     -3.70603   -1.40738   -0.00002
C   13   6      3.70602    1.40751    0.00003
C   14   6      3.70600   -1.40752    0.00003
C   15   6     -4.87577    0.71726   -0.00003
C   16   6     -4.87583   -0.71732   -0.00002
C   17   6      4.87574    0.71732    0.00004
C   18   6      4.87567   -0.71725    0.00004
H   19   1      1.23340    2.48964    0.00001
H   20   1      1.23339   -2.48964    0.00002
H   21   1     -1.23337    2.48968   -0.00001
H   22   1     -1.23338   -2.48967    0.00000
H   23   1     -3.70251    2.49497   -0.00002
H   24   1     -3.70250   -2.49495   -0.00001
H   25   1      3.70251    2.49509    0.00003
H   26   1      3.70252   -2.49510    0.00004
H   27   1     -5.82510    1.24572   -0.00003
H   28   1     -5.82517   -1.24577   -0.00003
H   29   1      5.82509    1.24573    0.00004
H   30   1      5.82502   -1.24567    0.00005
[GTO]
    1 0
 s    6 1.00
         3047.524900             0.536334
          457.369510             0.989451
          103.948690             1.597282
           29.210155             2.079187
            9.286663             1.774174
            3.163927             0.612580
 s    3 1.00
            7.868272            -0.399556
            1.881288            -0.184155
            0.544249             0.516390
 s    1 1.00
            0.168714             0.187618
 p    3 1.00
            7.868272             1.296083
            1.881288             0.993754
            0.544249             0.495953
 p    1 1.00
            0.168714             0.154128
 d    1 1.00
            0.800000             1.929201

    2 0
 s    6 1.00
         3047.524900             0.536334
          457.369510             0.989451
          103.948690             1.597282
           29.210155             2.079187
            9.286663             1.774174
            3.163927             0.612580
 s    3 1.00
            7.868272            -0.399556
            1.881288            -0.184155
            0.544249             0.516390
 s    1 1.00
            0.168714             0.187618
 p    3 1.00
            7.868272             1.296083
            1.881288             0.993754
            0.544249             0.495953
 p    1 1.00
            0.168714             0.154128
 d    1 1.00
            0.800000             1.929201

    3 0
 s    6 1.00
         3047.524900             0.536334
          457.369510             0.989451
          103.948690             1.597282
           29.210155             2.079187
            9.286663             1.774174
            3.163927             0.612580
 s    3 1.00
            7.868272            -0.399556
            1.881288            -0.184155
            0.544249             0.516390
 s    1 1.00
            0.168714             0.187618
 p    3 1.00
            7.868272             1.296083
            1.881288             0.993754
            0.544249             0.495953
 p    1 1.00
            0.168714             0.154128
 d    1 1.00
            0.800000             1.929201

    4 0
 s    6 1.00
         3047.524900             0.536334
          457.369510             0.989451
          103.948690             1.597282
           29.210155             2.079187
            9.286663             1.774174
            3.163927             0.612580
 s    3 1.00
            7.868272            -0.399556
            1.881288            -0.184155
            0.544249             0.516390
 s    1 1.00
            0.168714             0.187618
 p    3 1.00
            7.868272             1.296083
            1.881288             0.993754
            0.544249             0.495953
 p    1 1.00
            0.168714             0.154128
 d    1 1.00
            0.800000             1.929201

    5 0
 s    6 1.00
         3047.524900             0.536334
          457.369510             0.989451
          103.948690             1.597282
           29.210155             2.079187
            9.286663             1.774174
            3.163927             0.612580
 s    3 1.00
            7.868272            -0.399556
            1.881288            -0.184155
            0.544249             0.516390
 s    1 1.00
            0.168714             0.187618
 p    3 1.00
            7.868272             1.296083
            1.881288             0.993754
            0.544249             0.495953
 p    1 1.00
            0.168714             0.154128
 d    1 1.00
            0.800000             1.929201

    6 0
 s    6 1.00
         3047.524900             0.536334
          457.369510             0.989451
          103.948690             1.597282
           29.210155             2.079187
            9.286663             1.774174
            3.163927             0.612580
 s    3 1.00
            7.868272            -0.399556
            1.881288            -0.184155
            0.544249             0.516390
 s    1 1.00
            0.168714             0.187618
 p    3 1.00
            7.868272             1.296083
            1.881288             0.993754
            0.544249             0.495953
 p    1 1.00
            0.168714             0.154128
 d    1 1.00
            0.800000             1.929201

    7 0
 s    6 1.00
         3047.524900             0.536334
          457.369510             0.989451
          103.948690             1.597282
           29.210155             2.079187
            9.286663             1.774174
            3.163927             0.612580
 s    3 1.00
            7.868272            -0.399556
            1.881288            -0.184155
            0.544249             0.516390
 s    1 1.00
            0.168714             0.187618
 p    3 1.00
            7.868272             1.296083
            1.881288             0.993754
            0.544249             0.495953
 p    1 1.00
            0.168714             0.154128
 d    1 1.00
            0.800000             1.929201

    8 0
 s    6 1.00
         3047.524900             0.536334
          457.369510             0.989451
          103.948690             1.597282
           29.210155             2.079187
            9.286663             1.774174
            3.163927             0.612580
 s    3 1.00
            7.868272            -0.399556
            1.881288            -0.184155
            0.544249             0.516390
 s    1 1.00
            0.168714             0.187618
 p    3 1.00
            7.868272             1.296083
            1.881288             0.993754
            0.544249             0.495953
 p    1 1.00
            0.168714             0.154128
 d    1 1.00
            0.800000             1.929201

    9 0
 s    6 1.00
         3047.524900             0.536334
          457.369510             0.989451
          103.948690             1.597282
           29.210155             2.079187
            9.286663             1.774174
            3.163927             0.612580
 s    3 1.00
            7.868272            -0.399556
            1.881288            -0.184155
            0.544249             0.516390
 s    1 1.00
            0.168714             0.187618
 p    3 1.00
            7.868272             1.296083
            1.881288             0.993754
            0.544249             0.495953
 p    1 1.00
            0.168714             0.154128
 d    1 1.00
            0.800000             1.929201

   10 0
 s    6 1.00
         3047.524900             0.536334
          457.369510             0.989451
          103.948690             1.597282
           29.210155             2.079187
            9.286663             1.774174
            3.163927             0.612580
 s    3 1.00
            7.868272            -0.399556
            1.881288            -0.184155
            0.544249             0.516390
 s    1 1.00
            0.168714             0.187618
 p    3 1.00
            7.868272             1.296083
            1.881288             0.993754
            0.544249             0.495953
 p    1 1.00
            0.168714             0.154128
 d    1 1.00
            0.800000             1.929201

   11 0
 s    6 1.00
         3047.524900             0.536334
          457.369510             0.989451
          103.948690             1.597282
           29.210155             2.079187
            9.286663             1.774174
            3.163927             0.612580
 s    3 1.00
            7.868272            -0.399556
            1.881288            -0.184155
            0.544249             0.516390
 s    1 1.00
            0.168714             0.187618
 p    3 1.00
            7.868272             1.296083
            1.881288             0.993754
            0.544249             0.495953
 p    1 1.00
            0.168714             0.154128
 d    1 1.00
            0.800000             1.929201

   12 0
 s    6 1.00
         3047.524900             0.536334
          457.369510             0.989451
          103.948690             1.597282
           29.210155             2.079187
            9.286663             1.774174
            3.163927             0.612580
 s    3 1.00
            7.868272            -0.399556
            1.881288            -0.184155
            0.544249             0.516390
 s    1 1.00
            0.168714             0.187618
 p    3 1.00
            7.868272             1.296083
            1.881288             0.993754
            0.544249             0.495953
 p    1 1.00
            0.168714             0.154128
 d    1 1.00
            0.800000             1.929201

   13 0
 s    6 1.00
         3047.524900             0.536334
          457.369510             0.989451
          103.948690             1.597282
           29.210155             2.079187
            9.286663             1.774174
            3.163927             0.612580
 s    3 1.00
            7.868272            -0.399556
            1.881288            -0.184155
            0.544249             0.516390
 s    1 1.00
            0.168714             0.187618
 p    3 1.00
            7.868272             1.296083
            1.881288             0.993754
            0.544249             0.495953
 p    1 1.00
            0.168714             0.154128
 d    1 1.00
            0.800000             1.929201

   14 0
 s    6 1.00
         3047.524900             0.536334
          457.369510             0.989451
          103.948690             1.597282
           29.210155             2.079187
            9.286663             1.774174
            3.163927             0.612580
 s    3 1.00
            7.868272            -0.399556
            1.881288            -0.184155
            0.544249             0.516390
 s    1 1.00
            0.168714             0.187618
 p    3 1.00
            7.868272             1.296083
            1.881288             0.993754
            0.544249             0.495953
 p    1 1.00
            0.168714             0.154128
 d    1 1.00
            0.800000             1.929201

   15 0
 s    6 1.00
         3047.524900             0.536334
          457.369510             0.989451
          103.948690             1.597282
           29.210155             2.079187
            9.286663             1.774174
            3.163927             0.612580
 s    3 1.00
            7.868272            -0.399556
            1.881288            -0.184155
            0.544249             0.516390
 s    1 1.00
            0.168714             0.187618
 p    3 1.00
            7.868272             1.296083
            1.881288             0.993754
            0.544249             0.495953
 p    1 1.00
            0.168714             0.154128
 d    1 1.00
            0.800000             1.929201

   16 0
 s    6 1.00
         3047.524900             0.536334
          457.369510             0.989451
          103.948690             1.597282
           29.210155             2.079187
            9.286663             1.774174
            3.163927             0.612580
 s    3 1.00
            7.868272            -0.399556
            1.881288            -0.184155
            0.544249             0.516390
 s    1 1.00
            0.168714             0.187618
 p    3 1.00
            7.868272             1.296083
            1.881288             0.993754
            0.544249             0.495953
 p    1 1.00
            0.168714             0.154128
 d    1 1.00
            0.800000             1.929201

   17 0
 s    6 1.00
         3047.524900             0.536334
          457.369510             0.989451
          103.948690             1.597282
           29.210155             2.079187
            9.286663             1.774174
            3.163927             0.612580
 s    3 1.00
            7.868272            -0.399556
            1.881288            -0.184155
            0.544249             0.516390
 s    1 1.00
            0.168714             0.187618
 p    3 1.00
            7.868272             1.296083
            1.881288             0.993754
            0.544249             0.495953
 p    1 1.00
            0.168714             0.154128
 d    1 1.00
            0.800000             1.929201

   18 0
 s    6 1.00
         3047.524900             0.536334
          457.369510             0.989451
          103.948690             1.597282
           29.210155             2.079187
            9.286663             1.774174
            3.163927             0.612580
 s    3 1.00
            7.868272            -0.399556
            1.881288            -0.184155
            0.544249             0.516390
 s    1 1.00
            0.168714             0.187618
 p    3 1.00
            7.868272             1.296083
            1.881288             0.993754
            0.544249             0.495953
 p    1 1.00
            0.168714             0.154128
 d    1 1.00
            0.800000             1.929201

   19 0
 s    3 1.00
           18.731137             0.214935
            2.825394             0.364571
            0.640122             0.415051
 s    1 1.00
            0.161278             0.181381

   20 0
 s    3 1.00
           18.731137             0.214935
            2.825394             0.364571
            0.640122             0.415051
 s    1 1.00
            0.161278             0.181381

   21 0
 s    3 1.00
           18.731137             0.214935
            2.825394             0.364571
            0.640122             0.415051
 s    1 1.00
            0.161278             0.181381

   22 0
 s    3 1.00
           18.731137             0.214935
            2.825394             0.364571
            0.640122             0.415051
 s    1 1.00
            0.161278             0.181381

   23 0
 s    3 1.00
           18.731137             0.214935
            2.825394             0.364571
            0.640122             0.415051
 s    1 1.00
            0.161278             0.181381

   24 0
 s    3 1.00
           18.731137             0.214935
            2.825394             0.364571
            0.640122             0.415051
 s    1 1.00
            0.161278             0.181381

   25 0
 s    3 1.00
           18.731137             0.214935
            2.825394             0.364571
            0.640122             0.415051
 s    1 1.00
            0.161278             0.181381

   26 0
 s    3 1.00
           18.731137             0.214935
            2.825394             0.364571
            0.640122             0.415051
 s    1 1.00
            0.161278             0.181381

   27 0
 s    3 1.00
           18.731137             0.214935
            2.825394             0.364571
            0.640122             0.415051
 s    1 1.00
            0.161278             0.181381

   28 0
 s    3 1.00
           18.731137             0.214935
            2.825394             0.364571
            0.640122             0.415051
 s    1 1.00
            0.161278             0.181381

   29 0
 s    3 1.00
           18.731137             0.214935
            2.825394             0.364571
            0.640122             0.415051
 s    1 1.00
            0.161278             0.181381

   30 0
 s    3 1.00
           18.731137             0.214935
            2.825394             0.364571
            0.640122             0.415051
 s    1 1.00
            0.161278             0.181381

[MO]
 Ene=   -10.2993
 Spin= Alpha
 Occup= 2.0
    1    0.70266
    2    0.02387
    3   -0.01446
    4    0.00000
    5    0.00066
    6   -0.00000
    7    0.00000
    8   -0.00177
    9    0.00000
   10    0.00074
   11   -0.00068
   12   -0.00006
   13   -0.00000
   14    0.00000
   15   -0.00000
   16    0.70378
   17    0.02392
   18   -0.01451
   19    0.00000
   20   -0.00066
   21    0.00000
   22   -0.00000
   23    0.00176
   24   -0.00000
   25    0.00074
   26   -0.00068
   27   -0.00006
   28    0.00000
   29    0.00000
   30   -0.00000
   31   -0.01173
   32   -0.00064
   33   -0.00082
   34   -0.00023
   35    0.00007
   36   -0.00000
   37    0.00086
   38   -0.00059
   39    0.00000
   40   -0.00006
   41    0.00010
   42   -0.00004
   43    0.00002
   44   -0.00000
   45   -0.00000
   46   -0.01181
   47   -0.00064
   48   -0.00082
   49   -0.00023
   50   -0.00007
   51   -0.00000
   52    0.00085
   53    0.00059
   54    0.00000
   55   -0.00006
   56    0.00010
   57   -0.00004
   58   -0.00002
   59   -0.00000
   60   -0.00000
   61   -0.01195
   62   -0.00064
   63   -0.00081
   64    0.00023
   65    0.00007
   66    0.00000
   67   -0.00086
   68   -0.00059
   69   -0.00000
   70   -0.00006
   71    0.00010
   72   -0.00004
   73   -0.00002
   74   -0.00000
   75   -0.00000
   76   -0.01190
   77   -0.00064
   78   -0.00082
   79    0.00023
   80   -0.00007
   81    0.00000
   82   -0.00085
   83    0.00059
   84   -0.00000
   85   -0.00006
   86    0.00010
   87   -0.00004
   88    0.00002
   89   -0.00000
   90   -0.00000
   91    0.01493
   92   -0.00072
   93    0.00429
   94    0.00082
   95    0.00048
   96    0.00000
   97   -0.00175
   98   -0.00069
   99   -0.00000
  100   -0.00049
  101    0.00011
  102    0.00039
  103   -0.00068
  104   -0.00000
  105   -0.00000
  106    0.01496
  107   -0.00072
  108    0.00430
  109    0.00082
  110   -0.00048
  111    0.00000
  112   -0.00175
  113    0.00069
  114   -0.00000
  115   -0.00049
  116    0.00011
  117    0.00039
  118    0.00068
  119   -0.00000
  120    0.00000
  121    0.01494
  122   -0.00072
  123    0.00429
  124   -0.00082
  125    0.00048
  126   -0.00000
  127    0.00175
  128   -0.00069
  129    0.00000
  130   -0.00049
  131    0.00011
  132    0.00039
  133    0.00068
  134   -0.00000
  135    0.00000
  136    0.01497
  137   -0.00072
  138    0.00430
  139   -0.00082
  140   -0.00048
  141   -0.00000
  142    0.00175
  143    0.00069
  144    0.00000
  145   -0.00049
  146    0.00011
  147    0.00039
  148   -0.00068
  149   -0.00000
  150   -0.00000
  151   -0.00022
  152   -0.00011
  153    0.00104
  154    0.00003
  155   -0.00001
  156    0.00000
  157    0.00083
  158   -0.00036
  159    0.00000
  160    0.00004
  161    0.00001
  162   -0.00004
  163   -0.00004
  164    0.00000
  165   -0.00000
  166   -0.00022
  167   -0.00011
  168    0.00103
  169    0.00003
  170    0.00001
  171    0.00000
  172    0.00083
  173    0.00035
  174    0.00000
  175    0.00004
  176    0.00001
  177   -0.00004
  178    0.00004
  179    0.00000
  180    0.00000
  181   -0.00022
  182   -0.00011
  183    0.00104
  184   -0.00003
  185   -0.00001
  186   -0.00000
  187   -0.00083
  188   -0.00035
  189   -0.00000
  190    0.00004
  191    0.00001
  192   -0.00004
  193    0.00004
  194    0.00000
  195    0.00000
  196   -0.00022
  197   -0.00011
  198    0.00103
  199   -0.00003
  200    0.00001
  201   -0.00000
  202   -0.00083
  203    0.00035
  204   -0.00000
  205    0.00004
  206    0.00001
  207   -0.00004
  208   -0.00004
  209    0.00000
  210   -0.00000
  211    0.00001
  212   -0.00000
  213    0.00026
  214   -0.00000
  215   -0.00002
  216    0.00000
  217   -0.00004
  218    0.00023
  219   -0.00000
  220   -0.00000
  221    0.00001
  222   -0.00001
  223    0.00000
  224    0.00000
  225   -0.00000
  226    0.00001
  227   -0.00000
  228    0.00027
  229   -0.00000
  230    0.00002
  231   -0.00000
  232   -0.00004
  233   -0.00023
  234    0.00000
  235   -0.00000
  236    0.00001
  237   -0.00001
  238   -0.00000
  239    0.00000
  240   -0.00000
  241    0.00001
  242   -0.00000
  243    0.00027
  244    0.00000
  245   -0.00002
  246    0.00000
  247    0.00004
  248    0.00023
  249   -0.00000
  250   -0.00000
  251    0.00001
  252   -0.00000
  253   -0.00000
  254    0.00000
  255   -0.00000
  256    0.00001
  257   -0.00000
  258    0.00027
  259    0.00000
  260    0.00002
  261   -0.00000
  262    0.00004
  263   -0.00023
  264    0.00000
  265   -0.00000
  266    0.00001
  267   -0.00001
  268    0.00000
  269    0.00000
  270   -0.00000
  271   -0.00020
  272   -0.00006
  273   -0.00020
  274   -0.00006
  275   -0.00020
  276   -0.00006
  277   -0.00020
  278   -0.00006
  279   -0.00003
  280    0.00013
  281   -0.00003
  282    0.00012
  283   -0.00003
  284    0.00012
  285   -0.00003
  286    0.00012
  287   -0.00003
  288   -0.00005
  289   -0.00003
  290   -0.00005
  291   -0.00003
  292   -0.00005
  293   -0.00003
  294   -0.00005
 Ene=   -10.2990
 Spin= Alpha
 Occup= 2.0
    1    0.01221
    2    0.00021
    3   -0.00166
    4   -0.00023
    5    0.00008
    6   -0.00000
    7    0.00095
    8   -0.00074
    9    0.00000
   10   -0.00004
   11    0.00007
   12   -0.00003
   13    0.00002
   14   -0.00000
   15   -0.00000
   16    0.01044
   17    0.00014
   18   -0.00157
   19   -0.00023
   20   -0.00009
   21   -0.00000
   22    0.00096
   23    0.00076
   24    0.00000
   25   -0.00004
   26    0.00006
   27   -0.00003
   28   -0.00002
   29   -0.00000
   30   -0.00000
   31   -0.00987
   32   -0.00034
   33    0.00034
   34   -0.00000
   35   -0.00002
   36    0.00000
   37   -0.00010
   38    0.00017
   39   -0.00000
   40   -0.00002
   41    0.00002
   42   -0.00000
   43    0.00000
   44   -0.00000
   45   -0.00000
   46   -0.01012
   47   -0.00035
   48    0.00035
   49   -0.00000
   50    0.00002
   51   -0.00000
   52   -0.00010
   53   -0.00017
   54   -0.00000
   55   -0.00002
   56    0.00002
   57   -0.00000
   58   -0.00000
   59   -0.00000
   60   -0.00000
   61    0.70472
   62    0.02390
   63   -0.01466
   64   -0.00009
   65    0.00065
   66   -0.00000
   67    0.00023
   68   -0.00181
   69    0.00000
   70    0.00073
   71   -0.00067
   72   -0.00006
   73   -0.00008
   74    0.00000
   75   -0.00000
   76    0.70166
   77    0.02379
   78   -0.01452
   79   -0.00009
   80   -0.00066
   81    0.00000
   82    0.00022
   83    0.00184
   84   -0.00000
   85    0.00073
   86   -0.00067
   87   -0.00006
   88    0.00008
   89    0.00000
   90    0.00000
   91    0.02014
   92   -0.00071
   93    0.00483
   94   -0.00086
   95    0.00055
   96   -0.00000
   97    0.00179
   98   -0.00083
   99    0.00000
  100   -0.00049
  101    0.00010
  102    0.00040
  103    0.00065
  104   -0.00000
  105    0.00000
  106    0.02001
  107   -0.00071
  108    0.00477
  109   -0.00086
  110   -0.00055
  111   -0.00000
  112    0.00179
  113    0.00081
  114    0.00000
  115   -0.00049
  116    0.00009
  117    0.00039
  118   -0.00065
  119   -0.00000
  120   -0.00000
  121   -0.00007
  122   -0.00014
  123    0.00146
  124   -0.00002
  125   -0.00001
  126   -0.00000
  127    0.00105
  128   -0.00047
  129    0.00000
  130    0.00004
  131    0.00000
  132   -0.00004
  133   -0.00002
  134    0.00000
  135   -0.00000
  136   -0.00011
  137   -0.00014
  138    0.00145
  139   -0.00002
  140    0.00001
  141   -0.00000
  142    0.00104
  143    0.00046
  144    0.00000
  145    0.00004
  146    0.00000
  147   -0.00004
  148    0.00002
  149    0.00000
  150    0.00000
  151   -0.00018
  152   -0.00000
  153   -0.00028
  154   -0.00001
  155   -0.00001
  156   -0.00000
  157    0.00018
  158    0.00016
  159    0.00000
  160    0.00001
  161    0.00000
  162   -0.00001
  163   -0.00002
  164    0.00000
  165   -0.00000
  166   -0.00018
  167   -0.00000
  168   -0.00028
  169   -0.00001
  170    0.00001
  171   -0.00000
  172    0.00018
  173   -0.00016
  174    0.00000
  175    0.00001
  176    0.00000
  177   -0.00001
  178    0.00002
  179    0.00000
  180    0.00000
  181    0.01152
  182   -0.00075
  183    0.00396
  184    0.00071
  185    0.00045
  186    0.00000
  187   -0.00178
  188   -0.00083
  189   -0.00000
  190   -0.00052
  191    0.00014
  192    0.00038
  193   -0.00068
  194   -0.00000
  195   -0.00000
  196    0.01147
  197   -0.00074
  198    0.00393
  199    0.00071
  200   -0.00045
  201    0.00000
  202   -0.00177
  203    0.00082
  204   -0.00000
  205   -0.00051
  206    0.00013
  207    0.00038
  208    0.00067
  209   -0.00000
  210    0.00000
  211   -0.00001
  212   -0.00001
  213    0.00026
  214    0.00001
  215    0.00001
  216    0.00000
  217    0.00009
  218    0.00007
  219    0.00000
  220    0.00001
  221   -0.00000
  222   -0.00000
  223    0.00001
  224    0.00000
  225    0.00000
  226   -0.00001
  227   -0.00001
  228    0.00026
  229    0.00001
  230   -0.00001
  231    0.00000
  232    0.00009
  233   -0.00007
  234    0.00000
  235    0.00001
  236   -0.00000
  237   -0.00000
  238   -0.00001
  239    0.00000
  240   -0.00000
  241   -0.00049
  242   -0.00039
  243    0.00014
  244    0.00023
  245    0.00004
  246    0.00000
  247   -0.00035
  248   -0.00004
  249   -0.00000
  250   -0.00000
  251    0.00009
  252   -0.00009
  253    0.00001
  254    0.00000
  255   -0.00000
  256   -0.00049
  257   -0.00039
  258    0.00015
  259    0.00023
  260   -0.00004
  261    0.00000
  262   -0.00035
  263    0.00005
  264   -0.00000
  265   -0.00000
  266    0.00009
  267   -0.00009
  268   -0.00001
  269    0.00000
  270   -0.00000
  271   -0.00021
  272   -0.00005
  273   -0.00021
  274   -0.00006
  275   -0.00003
  276    0.00013
  277   -0.00003
  278    0.00013
  279   -0.00002
  280   -0.00001
  281   -0.00002
  282   -0.00001
  283   -0.00020
  284    0.00009
  285   -0.00020
  286    0.00008
  287   -0.00001
  288    0.00000
  289   -0.00001
  290    0.00000
  291    0.00001
  292    0.00029
  293    0.00001
  294    0.00030
 Ene=   -10.2990
 Spin= Alpha
 Occup= 2.0
    1    0.00648
    2   -0.00001
    3   -0.00141
    4    0.00022
    5    0.00009
    6    0.00000
    7   -0.00097
    8   -0.00081
    9   -0.00000
   10   -0.00004
   11    0.00006
   12   -0.00002
   13   -0.00002
   14   -0.00000
   15   -0.00000
   16    0.01649
   17    0.00036
   18   -0.00190
   19    0.00022
   20   -0.00008
   21    0.00000
   22   -0.00089
   23    0.00073
   24   -0.00000
   25   -0.00004
   26    0.00008
   27   -0.00003
   28    0.00002
   29   -0.00000
   30   -0.00000
   31    0.69680
   32    0.02361
   33   -0.01429
   34    0.00009
   35    0.00066
   36   -0.00000
   37   -0.00020
   38   -0.00187
   39    0.00000
   40    0.00073
   41   -0.00068
   42   -0.00005
   43    0.00008
   44    0.00000
   45    0.00000
   46    0.70949
   47    0.02408
   48   -0.01489
   49    0.00009
   50   -0.00065
   51    0.00000
   52   -0.00026
   53    0.00176
   54   -0.00000
   55    0.00073
   56   -0.00066
   57   -0.00007
   58   -0.00008
   59    0.00000
   60   -0.00000
   61    0.00962
   62    0.00032
   63   -0.00005
   64   -0.00000
   65   -0.00000
   66    0.00000
   67    0.00010
   68    0.00011
   69    0.00000
   70    0.00000
   71   -0.00000
   72   -0.00000
   73   -0.00000
   74    0.00000
   75   -0.00000
   76    0.00999
   77    0.00033
   78   -0.00008
   79   -0.00000
   80    0.00000
   81   -0.00000
   82    0.00012
   83   -0.00012
   84    0.00000
   85    0.00000
   86    0.00000
   87   -0.00000
   88    0.00000
   89    0.00000
   90   -0.00000
   91    0.00035
   92   -0.00015
   93    0.00156
   94   -0.00001
   95    0.00001
   96   -0.00000
   97   -0.00099
   98   -0.00048
   99   -0.00000
  100    0.00003
  101    0.00001
  102   -0.00003
  103    0.00004
  104    0.00000
  105    0.00000
  106    0.00059
  107   -0.00016
  108    0.00163
  109    0.00000
  110   -0.00001
  111    0.00000
  112   -0.00100
  113    0.00050
  114   -0.00000
  115    0.00002
  116    0.00001
  117   -0.00003
  118   -0.00003
  119    0.00000
  120   -0.00000
  121    0.01979
  122   -0.00070
  123    0.00470
  124    0.00086
  125    0.00054
  126    0.00000
  127   -0.00176
  128   -0.00077
  129   -0.00000
  130   -0.00048
  131    0.00009
  132    0.00039
  133   -0.00065
  134   -0.00000
  135   -0.00000
  136    0.02038
  137   -0.00072
  138    0.00498
  139    0.00086
  140   -0.00055
  141    0.00000
  142   -0.00177
  143    0.00089
  144   -0.00000
  145   -0.00050
  146    0.00010
  147    0.00040
  148    0.00065
  149   -0.00000
  150    0.00000
  151    0.01138
  152   -0.00074
  153    0.00389
  154   -0.00070
  155    0.00045
  156   -0.00000
  157    0.00177
  158   -0.00080
  159    0.00000
  160   -0.00051
  161    0.00013
  162    0.00038
  163    0.00067
  164   -0.00000
  165    0.00000
  166    0.01160
  167   -0.00075
  168    0.00398
  169   -0.00071
  170   -0.00045
  171   -0.00000
  172    0.00179
  173    0.00084
  174    0.00000
  175   -0.00052
  176    0.00014
  177    0.00038
  178   -0.00068
  179   -0.00000
  180   -0.00000
  181    0.00014
  182   -0.00002